TITLE = "pert vel"
VARIABLES = "r", "z", "u", "v", "w"
ZONE i=40, j=1000
 0.00000000e+00  2.00000000e+03    3.74894455e-01  2.00887521e-01  1.49499014e-01
 2.50000000e-04  2.00000000e+03    3.65399132e-01  2.22911711e-01  1.50296100e-01
 5.00000000e-04  2.00000000e+03    3.68308386e-01  2.46384759e-01  1.31078920e-01
 7.50000000e-04  2.00000000e+03    3.32128392e-01  2.39713462e-01  1.19737036e-01
 1.00000000e-03  2.00000000e+03    2.89179292e-01  2.38667145e-01  1.24770011e-01
 1.25000000e-03  2.00000000e+03    2.54198030e-01  2.52310290e-01  9.13747517e-02
 1.50000000e-03  2.00000000e+03    2.19423498e-01  2.76154459e-01  7.55564506e-02
 1.75000000e-03  2.00000000e+03    2.19228286e-01  3.07935839e-01  5.29894696e-02
 2.00000000e-03  2.00000000e+03    1.50700561e-01  3.15429023e-01  6.18796920e-02
 2.25000000e-03  2.00000000e+03    1.24408337e-01  3.37595839e-01  5.68079619e-02
 2.50000000e-03  2.00000000e+03    9.71585027e-02  3.51001681e-01  6.62789039e-02
 2.75000000e-03  2.00000000e+03    7.98741682e-02  3.56428912e-01  7.65677846e-02
 3.00000000e-03  2.00000000e+03    5.22021309e-02  3.85812830e-01  7.31311666e-02
 3.25000000e-03  2.00000000e+03    1.60523860e-02  3.91066687e-01  8.52922134e-02
 3.50000000e-03  2.00000000e+03   -1.99656201e-02  4.09385392e-01  8.97495524e-02
 3.75000000e-03  2.00000000e+03   -4.02862209e-02  4.27413827e-01  3.38769645e-02
 4.00000000e-03  2.00000000e+03   -6.93924064e-02  3.95484820e-01  4.87661616e-02
 4.25000000e-03  2.00000000e+03   -1.29047946e-01  4.07834799e-01  5.81658402e-02
 4.50000000e-03  2.00000000e+03   -1.44396070e-01  3.97010006e-01  6.48629594e-02
 4.75000000e-03  2.00000000e+03   -1.61120037e-01  4.27076820e-01  7.69994744e-02
 5.00000000e-03  2.00000000e+03   -1.51076175e-01  4.30971398e-01  9.76950153e-02
 5.25000000e-03  2.00000000e+03   -1.34375508e-01  4.21139059e-01  9.60178626e-02
 5.50000000e-03  2.00000000e+03   -1.24275942e-01  4.26632051e-01  1.08934139e-01
 5.75000000e-03  2.00000000e+03   -1.33898870e-01  4.43663020e-01  1.16976641e-01
 6.00000000e-03  2.00000000e+03   -1.55531327e-01  4.32356846e-01  1.44674878e-01
 6.25000000e-03  2.00000000e+03   -1.45418719e-01  4.34513233e-01  1.08022071e-01
 6.50000000e-03  2.00000000e+03   -1.57903684e-01  4.00619932e-01  9.88635149e-02
 6.75000000e-03  2.00000000e+03   -1.43703691e-01  4.25118578e-01  9.35970253e-02
 7.00000000e-03  2.00000000e+03   -1.00614630e-01  4.04903003e-01  4.46905504e-02
 7.25000000e-03  2.00000000e+03   -1.18265130e-01  3.88432619e-01  4.34280222e-02
 7.50000000e-03  2.00000000e+03   -1.28817508e-01  3.58682861e-01  5.97400039e-02
 7.75000000e-03  2.00000000e+03   -1.14809987e-01  3.52570281e-01  1.57744747e-02
 8.00000000e-03  2.00000000e+03   -8.66625043e-02  3.49787359e-01  1.89344721e-02
 8.25000000e-03  2.00000000e+03   -7.69698710e-02  3.55226098e-01 -7.78970662e-03
 8.50000000e-03  2.00000000e+03   -6.05103162e-02  3.46654401e-01  5.94106475e-03
 8.75000000e-03  2.00000000e+03   -5.58949530e-02  3.52868258e-01  2.99982893e-03
 9.00000000e-03  2.00000000e+03   -7.53154167e-02  3.27149819e-01  1.43571108e-02
 9.25000000e-03  2.00000000e+03   -4.18619920e-02  3.08504093e-01  2.34516716e-04
 9.50000000e-03  2.00000000e+03   -2.83328932e-02  3.13030113e-01 -1.53964059e-02
 9.75000000e-03  2.00000000e+03   -4.09700596e-02  2.90510556e-01  8.30681190e-03
 0.00000000e+00  2.00100000e+03    4.04555274e-01  2.25268287e-01  1.53035367e-01
 2.50000000e-04  2.00100000e+03    3.93302947e-01  2.46647388e-01  1.52254448e-01
 5.00000000e-04  2.00100000e+03    3.94304782e-01  2.68875633e-01  1.31981010e-01
 7.50000000e-04  2.00100000e+03    3.55497150e-01  2.60826937e-01  1.19062469e-01
 1.00000000e-03  2.00100000e+03    3.10799258e-01  2.61347022e-01  1.22851844e-01
 1.25000000e-03  2.00100000e+03    2.74141557e-01  2.75801676e-01  8.67244622e-02
 1.50000000e-03  2.00100000e+03    2.38424879e-01  3.00102287e-01  6.92451145e-02
 1.75000000e-03  2.00100000e+03    2.38055333e-01  3.31357415e-01  4.50804587e-02
 2.00000000e-03  2.00100000e+03    1.69003816e-01  3.37576280e-01  5.21044391e-02
 2.25000000e-03  2.00100000e+03    1.40880692e-01  3.59747987e-01  4.62616077e-02
 2.50000000e-03  2.00100000e+03    1.11962644e-01  3.70338093e-01  5.40812256e-02
 2.75000000e-03  2.00100000e+03    9.33046609e-02  3.74705549e-01  6.32624226e-02
 3.00000000e-03  2.00100000e+03    6.56010093e-02  4.03853472e-01  6.01921310e-02
 3.25000000e-03  2.00100000e+03    2.88759562e-02  4.06598684e-01  7.09349435e-02
 3.50000000e-03  2.00100000e+03   -5.71279479e-03  4.25146202e-01  7.45930465e-02
 3.75000000e-03  2.00100000e+03   -2.64822502e-02  4.41950813e-01  1.82183124e-02
 4.00000000e-03  2.00100000e+03   -5.60539876e-02  4.09612286e-01  3.23959581e-02
 4.25000000e-03  2.00100000e+03   -1.15449444e-01  4.20278805e-01  4.11206606e-02
 4.50000000e-03  2.00100000e+03   -1.31465203e-01  4.07909602e-01  4.89045474e-02
 4.75000000e-03  2.00100000e+03   -1.49281525e-01  4.36915297e-01  6.18341448e-02
 5.00000000e-03  2.00100000e+03   -1.39226908e-01  4.39830214e-01  8.26138312e-02
 5.25000000e-03  2.00100000e+03   -1.22805351e-01  4.30083452e-01  8.09094697e-02
 5.50000000e-03  2.00100000e+03   -1.10889513e-01  4.35176273e-01  9.33645428e-02
 5.75000000e-03  2.00100000e+03   -1.21772723e-01  4.51418078e-01  1.02248567e-01
 6.00000000e-03  2.00100000e+03   -1.44793144e-01  4.38747066e-01  1.30332031e-01
 6.25000000e-03  2.00100000e+03   -1.34581330e-01  4.40938511e-01  9.59812627e-02
 6.50000000e-03  2.00100000e+03   -1.49261418e-01  4.06360668e-01  8.86905176e-02
 6.75000000e-03  2.00100000e+03   -1.34727389e-01  4.31728756e-01  8.40419010e-02
 7.00000000e-03  2.00100000e+03   -9.18174155e-02  4.11022918e-01  3.57751390e-02
 7.25000000e-03  2.00100000e+03   -1.09855558e-01  3.94702413e-01  3.56480905e-02
 7.50000000e-03  2.00100000e+03   -1.20044282e-01  3.64857008e-01  5.31852575e-02
 7.75000000e-03  2.00100000e+03   -1.07688094e-01  3.57882705e-01  8.77065775e-03
 8.00000000e-03  2.00100000e+03   -7.85951610e-02  3.54589885e-01  1.28370779e-02
 8.25000000e-03  2.00100000e+03   -7.10525276e-02  3.60250272e-01 -1.33681779e-02
 8.50000000e-03  2.00100000e+03   -5.57278521e-02  3.53648198e-01  1.83867698e-03
 8.75000000e-03  2.00100000e+03   -5.10929420e-02  3.60570216e-01  6.86237612e-04
 9.00000000e-03  2.00100000e+03   -7.06661421e-02  3.34083467e-01  1.28493222e-02
 9.25000000e-03  2.00100000e+03   -3.79095310e-02  3.16644105e-01  6.58816050e-04
 9.50000000e-03  2.00100000e+03   -2.57740073e-02  3.21725342e-01 -1.38233132e-02
 9.75000000e-03  2.00100000e+03   -3.99552306e-02  2.99759290e-01  1.02097567e-02
 0.00000000e+00  2.00200000e+03    4.17390309e-01  1.97658726e-01  1.41951350e-01
 2.50000000e-04  2.00200000e+03    4.06552532e-01  2.18055761e-01  1.43360871e-01
 5.00000000e-04  2.00200000e+03    4.07411543e-01  2.39128875e-01  1.25555702e-01
 7.50000000e-04  2.00200000e+03    3.66847858e-01  2.28179496e-01  1.16551706e-01
 1.00000000e-03  2.00200000e+03    3.21379846e-01  2.27575653e-01  1.22450119e-01
 1.25000000e-03  2.00200000e+03    2.83612416e-01  2.41108167e-01  8.84944912e-02
 1.50000000e-03  2.00200000e+03    2.48353201e-01  2.65304442e-01  7.28056576e-02
 1.75000000e-03  2.00200000e+03    2.49140109e-01  2.95989538e-01  5.18926055e-02
 2.00000000e-03  2.00200000e+03    1.79074396e-01  3.01706014e-01  6.24441208e-02
 2.25000000e-03  2.00200000e+03    1.51071099e-01  3.24249910e-01  5.98512637e-02
 2.50000000e-03  2.00200000e+03    1.21085877e-01  3.32488350e-01  6.97502699e-02
 2.75000000e-03  2.00200000e+03    1.01938604e-01  3.36031893e-01  8.23234664e-02
 3.00000000e-03  2.00200000e+03    7.39579929e-02  3.64895863e-01  8.24052856e-02
 3.25000000e-03  2.00200000e+03    3.72986288e-02  3.67719938e-01  9.55021766e-02
 3.50000000e-03  2.00200000e+03    3.02808922e-03  3.86191030e-01  1.00960175e-01
 3.75000000e-03  2.00200000e+03   -1.79379818e-02  4.02086063e-01  4.66196584e-02
 4.00000000e-03  2.00200000e+03   -4.73150885e-02  3.71090169e-01  6.23613956e-02
 4.25000000e-03  2.00200000e+03   -1.05612031e-01  3.81516361e-01  7.26552463e-02
 4.50000000e-03  2.00200000e+03   -1.22163501e-01  3.69496290e-01  8.21565715e-02
 4.75000000e-03  2.00200000e+03   -1.40748708e-01  3.98008119e-01  9.56943069e-02
 5.00000000e-03  2.00200000e+03   -1.31719918e-01  4.01654330e-01  1.17303273e-01
 5.25000000e-03  2.00200000e+03   -1.17841745e-01  3.92771759e-01  1.15962029e-01
 5.50000000e-03  2.00200000e+03   -1.05411857e-01  3.98996477e-01  1.29562824e-01
 5.75000000e-03  2.00200000e+03   -1.18226425e-01  4.16811445e-01  1.37290497e-01
 6.00000000e-03  2.00200000e+03   -1.41949693e-01  4.05133641e-01  1.64891558e-01
 6.25000000e-03  2.00200000e+03   -1.33467514e-01  4.10176879e-01  1.30787109e-01
 6.50000000e-03  2.00200000e+03   -1.49733023e-01  3.77364608e-01  1.22451210e-01
 6.75000000e-03  2.00200000e+03   -1.37068378e-01  4.03875105e-01  1.16700823e-01
 7.00000000e-03  2.00200000e+03   -9.47109084e-02  3.85392392e-01  6.66723060e-02
 7.25000000e-03  2.00200000e+03   -1.14896065e-01  3.70514323e-01  6.47890573e-02
 7.50000000e-03  2.00200000e+03   -1.25793923e-01  3.42556906e-01  8.12575996e-02
 7.75000000e-03  2.00200000e+03   -1.15449042e-01  3.38026878e-01  3.48834743e-02
 8.00000000e-03  2.00200000e+03   -8.70296410e-02  3.35045179e-01  3.72748748e-02
 8.25000000e-03  2.00200000e+03   -8.15436324e-02  3.42068369e-01  8.55562790e-03
 8.50000000e-03  2.00200000e+03   -6.87557730e-02  3.38288868e-01  2.36311997e-02
 8.75000000e-03  2.00200000e+03   -6.73032334e-02  3.47645105e-01  2.29984808e-02
 9.00000000e-03  2.00200000e+03   -8.78518549e-02  3.23037786e-01  3.20968062e-02
 9.25000000e-03  2.00200000e+03   -5.77282615e-02  3.08187908e-01  1.74433682e-02
 9.50000000e-03  2.00200000e+03   -4.76302326e-02  3.16291514e-01  1.73114631e-03
 9.75000000e-03  2.00200000e+03   -6.25475241e-02  2.97063763e-01  2.33681805e-02
 0.00000000e+00  2.00300000e+03    4.42136016e-01  1.98166734e-01  1.26218235e-01
 2.50000000e-04  2.00300000e+03    4.30710555e-01  2.17635216e-01  1.27996864e-01
 5.00000000e-04  2.00300000e+03    4.31080675e-01  2.38971700e-01  1.10125013e-01
 7.50000000e-04  2.00300000e+03    3.88939576e-01  2.25464093e-01  1.00815409e-01
 1.00000000e-03  2.00300000e+03    3.43300484e-01  2.23514460e-01  1.06792197e-01
 1.25000000e-03  2.00300000e+03    3.03693742e-01  2.34859567e-01  7.37313885e-02
 1.50000000e-03  2.00300000e+03    2.67022061e-01  2.58651383e-01  5.79834094e-02
 1.75000000e-03  2.00300000e+03    2.69738394e-01  2.88799197e-01  3.64641155e-02
 2.00000000e-03  2.00300000e+03    1.99532645e-01  2.92833843e-01  4.69520575e-02
 2.25000000e-03  2.00300000e+03    1.70523127e-01  3.14053362e-01  4.45594532e-02
 2.50000000e-03  2.00300000e+03    1.39692621e-01  3.21043134e-01  5.49981105e-02
 2.75000000e-03  2.00300000e+03    1.19365145e-01  3.23699667e-01  6.90452475e-02
 3.00000000e-03  2.00300000e+03    9.10424982e-02  3.52778527e-01  7.10303281e-02
 3.25000000e-03  2.00300000e+03    5.38924526e-02  3.55211399e-01  8.41428203e-02
 3.50000000e-03  2.00300000e+03    1.89295096e-02  3.74060655e-01  9.06905116e-02
 3.75000000e-03  2.00300000e+03   -1.77049078e-03  3.89731688e-01  3.89903366e-02
 4.00000000e-03  2.00300000e+03   -3.22751599e-02  3.59002895e-01  5.41182577e-02
 4.25000000e-03  2.00300000e+03   -9.14091222e-02  3.69533816e-01  6.57689210e-02
 4.50000000e-03  2.00300000e+03   -1.09512891e-01  3.58498202e-01  7.67555821e-02
 4.75000000e-03  2.00300000e+03   -1.30846958e-01  3.88126678e-01  9.05810749e-02
 5.00000000e-03  2.00300000e+03   -1.23010124e-01  3.92710866e-01  1.15883662e-01
 5.25000000e-03  2.00300000e+03   -1.12231381e-01  3.84792111e-01  1.16436469e-01
 5.50000000e-03  2.00300000e+03   -9.96724941e-02  3.92057028e-01  1.31249810e-01
 5.75000000e-03  2.00300000e+03   -1.15509949e-01  4.10968495e-01  1.39652733e-01
 6.00000000e-03  2.00300000e+03   -1.41497760e-01  4.00718791e-01  1.68032384e-01
 6.25000000e-03  2.00300000e+03   -1.35659033e-01  4.08501260e-01  1.36376749e-01
 6.50000000e-03  2.00300000e+03   -1.53960392e-01  3.76662001e-01  1.29730928e-01
 6.75000000e-03  2.00300000e+03   -1.43208942e-01  4.05805177e-01  1.25483396e-01
 7.00000000e-03  2.00300000e+03   -1.01108770e-01  3.88455722e-01  7.74252786e-02
 7.25000000e-03  2.00300000e+03   -1.22312388e-01  3.74723950e-01  7.68880742e-02
 7.50000000e-03  2.00300000e+03   -1.34651054e-01  3.48392048e-01  9.41343902e-02
 7.75000000e-03  2.00300000e+03   -1.25774313e-01  3.46106285e-01  4.81143367e-02
 8.00000000e-03  2.00300000e+03   -9.90474325e-02  3.45416267e-01  4.95735620e-02
 8.25000000e-03  2.00300000e+03   -9.44119125e-02  3.53422396e-01  2.04875561e-02
 8.50000000e-03  2.00300000e+03   -8.33743249e-02  3.51865993e-01  3.62513290e-02
 8.75000000e-03  2.00300000e+03   -8.26699481e-02  3.62199657e-01  3.74308111e-02
 9.00000000e-03  2.00300000e+03   -1.03104753e-01  3.38197480e-01  4.54123466e-02
 9.25000000e-03  2.00300000e+03   -7.38146305e-02  3.24041414e-01  3.02180451e-02
 9.50000000e-03  2.00300000e+03   -6.45433600e-02  3.32217094e-01  1.41782181e-02
 9.75000000e-03  2.00300000e+03   -8.00953324e-02  3.13047249e-01  3.38748149e-02
 0.00000000e+00  2.00400000e+03    4.43716417e-01  1.85495790e-01  1.16160970e-01
 2.50000000e-04  2.00400000e+03    4.31609135e-01  2.03478599e-01  1.18582689e-01
 5.00000000e-04  2.00400000e+03    4.32457045e-01  2.23491989e-01  1.03055111e-01
 7.50000000e-04  2.00400000e+03    3.88299300e-01  2.09245251e-01  9.50556691e-02
 1.00000000e-03  2.00400000e+03    3.41892373e-01  2.06700495e-01  1.01618524e-01
 1.25000000e-03  2.00400000e+03    3.01603267e-01  2.17188673e-01  6.80921751e-02
 1.50000000e-03  2.00400000e+03    2.64477369e-01  2.41313917e-01  5.26992529e-02
 1.75000000e-03  2.00400000e+03    2.68266730e-01  2.70290640e-01  3.23999256e-02
 2.00000000e-03  2.00400000e+03    1.97847169e-01  2.74257707e-01  4.45636812e-02
 2.25000000e-03  2.00400000e+03    1.68539096e-01  2.95012690e-01  4.20753341e-02
 2.50000000e-03  2.00400000e+03    1.37345405e-01  3.00961104e-01  5.17448298e-02
 2.75000000e-03  2.00400000e+03    1.17273745e-01  3.03658511e-01  6.59543443e-02
 3.00000000e-03  2.00400000e+03    8.95710683e-02  3.32897336e-01  6.95455217e-02
 3.25000000e-03  2.00400000e+03    5.24759155e-02  3.35003560e-01  8.18903601e-02
 3.50000000e-03  2.00400000e+03    1.79997198e-02  3.53905484e-01  8.89438359e-02
 3.75000000e-03  2.00400000e+03   -1.80834522e-03  3.69417796e-01  3.71516949e-02
 4.00000000e-03  2.00400000e+03   -3.26003864e-02  3.39402484e-01  5.16023036e-02
 4.25000000e-03  2.00400000e+03   -9.16616555e-02  3.49284132e-01  6.32390187e-02
 4.50000000e-03  2.00400000e+03   -1.09670322e-01  3.38047019e-01  7.51029590e-02
 4.75000000e-03  2.00400000e+03   -1.31557538e-01  3.68385133e-01  8.85236548e-02
 5.00000000e-03  2.00400000e+03   -1.23196522e-01  3.74218746e-01  1.13441734e-01
 5.25000000e-03  2.00400000e+03   -1.12855787e-01  3.65956353e-01  1.12466051e-01
 5.50000000e-03  2.00400000e+03   -9.91427119e-02  3.73707307e-01  1.27444027e-01
 5.75000000e-03  2.00400000e+03   -1.15333448e-01  3.92104685e-01  1.35453302e-01
 6.00000000e-03  2.00400000e+03   -1.41348495e-01  3.83304862e-01  1.63381802e-01
 6.25000000e-03  2.00400000e+03   -1.36459368e-01  3.92123754e-01  1.31190075e-01
 6.50000000e-03  2.00400000e+03   -1.54289624e-01  3.61261670e-01  1.24120694e-01
 6.75000000e-03  2.00400000e+03   -1.43704013e-01  3.91825199e-01  1.17449439e-01
 7.00000000e-03  2.00400000e+03   -1.00463775e-01  3.77855554e-01  6.98001013e-02
 7.25000000e-03  2.00400000e+03   -1.22249339e-01  3.65241606e-01  6.72572429e-02
 7.50000000e-03  2.00400000e+03   -1.34232069e-01  3.39610465e-01  8.42877560e-02
 7.75000000e-03  2.00400000e+03   -1.26283459e-01  3.38679916e-01  3.76289742e-02
 8.00000000e-03  2.00400000e+03   -9.84438083e-02  3.39021446e-01  3.95593186e-02
 8.25000000e-03  2.00400000e+03   -9.31459978e-02  3.47035429e-01  8.15601091e-03
 8.50000000e-03  2.00400000e+03   -8.08748209e-02  3.46098205e-01  2.59149777e-02
 8.75000000e-03  2.00400000e+03   -7.83618295e-02  3.57091064e-01  2.85743619e-02
 9.00000000e-03  2.00400000e+03   -9.74668447e-02  3.32794235e-01  3.59790382e-02
 9.25000000e-03  2.00400000e+03   -6.72879843e-02  3.20741764e-01  2.09063878e-02
 9.50000000e-03  2.00400000e+03   -5.77683531e-02  3.30933651e-01  5.14084657e-03
 9.75000000e-03  2.00400000e+03   -7.31996900e-02  3.12260922e-01  2.39847206e-02
 0.00000000e+00  2.00500000e+03    4.43602785e-01  1.73924375e-01  1.02202356e-01
 2.50000000e-04  2.00500000e+03    4.30841782e-01  1.90788692e-01  1.05122114e-01
 5.00000000e-04  2.00500000e+03    4.30290205e-01  2.09403070e-01  8.89235847e-02
 7.50000000e-04  2.00500000e+03    3.84396494e-01  1.93614461e-01  8.22111651e-02
 1.00000000e-03  2.00500000e+03    3.36649015e-01  1.90454042e-01  8.96036466e-02
 1.25000000e-03  2.00500000e+03    2.95853486e-01  2.00109156e-01  5.54689135e-02
 1.50000000e-03  2.00500000e+03    2.57403451e-01  2.24012627e-01  3.95997978e-02
 1.75000000e-03  2.00500000e+03    2.60449183e-01  2.50682696e-01  1.93626879e-02
 2.00000000e-03  2.00500000e+03    1.89483437e-01  2.52150706e-01  3.31197697e-02
 2.25000000e-03  2.00500000e+03    1.58786739e-01  2.72653738e-01  3.06210089e-02
 2.50000000e-03  2.00500000e+03    1.26145463e-01  2.77188272e-01  4.02408553e-02
 2.75000000e-03  2.00500000e+03    1.04673553e-01  2.79158361e-01  5.58451838e-02
 3.00000000e-03  2.00500000e+03    7.76047077e-02  3.06769978e-01  5.86469765e-02
 3.25000000e-03  2.00500000e+03    4.17008847e-02  3.08975755e-01  7.07498205e-02
 3.50000000e-03  2.00500000e+03    7.83294480e-03  3.28329103e-01  7.85552211e-02
 3.75000000e-03  2.00500000e+03   -1.09959915e-02  3.42636340e-01  2.88516787e-02
 4.00000000e-03  2.00500000e+03   -4.21584127e-02  3.13461211e-01  4.34361458e-02
 4.25000000e-03  2.00500000e+03   -9.98972441e-02  3.22266552e-01  5.48426255e-02
 4.50000000e-03  2.00500000e+03   -1.17833112e-01  3.11677097e-01  6.78622073e-02
 4.75000000e-03  2.00500000e+03   -1.40815601e-01  3.41292570e-01  8.10647802e-02
 5.00000000e-03  2.00500000e+03   -1.31256801e-01  3.48126435e-01  1.05590004e-01
 5.25000000e-03  2.00500000e+03   -1.21416919e-01  3.40070583e-01  1.04484433e-01
 5.50000000e-03  2.00500000e+03   -1.05953650e-01  3.47865757e-01  1.18284302e-01
 5.75000000e-03  2.00500000e+03   -1.20739627e-01  3.67339134e-01  1.26520745e-01
 6.00000000e-03  2.00500000e+03   -1.45640849e-01  3.60011336e-01  1.54423355e-01
 6.25000000e-03  2.00500000e+03   -1.40197324e-01  3.69145695e-01  1.23402034e-01
 6.50000000e-03  2.00500000e+03   -1.57474271e-01  3.37360013e-01  1.16565152e-01
 6.75000000e-03  2.00500000e+03   -1.43994924e-01  3.68234123e-01  1.08738061e-01
 7.00000000e-03  2.00500000e+03   -1.00012882e-01  3.55056264e-01  6.07226753e-02
 7.25000000e-03  2.00500000e+03   -1.19188778e-01  3.42907412e-01  5.88560160e-02
 7.50000000e-03  2.00500000e+03   -1.28959662e-01  3.19014417e-01  7.54772331e-02
 7.75000000e-03  2.00500000e+03   -1.19460697e-01  3.20431209e-01  2.95779093e-02
 8.00000000e-03  2.00500000e+03   -8.91261175e-02  3.21964639e-01  3.15534877e-02
 8.25000000e-03  2.00500000e+03   -8.19148839e-02  3.31160894e-01  2.56895335e-04
 8.50000000e-03  2.00500000e+03   -6.89971360e-02  3.32595500e-01  1.84036664e-02
 8.75000000e-03  2.00500000e+03   -6.46888827e-02  3.44469752e-01  2.23018503e-02
 9.00000000e-03  2.00500000e+03   -8.42286747e-02  3.21581558e-01  2.89764499e-02
 9.25000000e-03  2.00500000e+03   -5.41351258e-02  3.09112385e-01  1.36432434e-02
 9.50000000e-03  2.00500000e+03   -4.49286238e-02  3.20268760e-01 -2.33083822e-03
 9.75000000e-03  2.00500000e+03   -5.91967369e-02  3.02165036e-01  1.58807262e-02
 0.00000000e+00  2.00600000e+03    4.41195992e-01  1.53607838e-01  9.07418025e-02
 2.50000000e-04  2.00600000e+03    4.29522262e-01  1.70255894e-01  9.41523825e-02
 5.00000000e-04  2.00600000e+03    4.30544653e-01  1.89330637e-01  7.66992571e-02
 7.50000000e-04  2.00600000e+03    3.85420496e-01  1.73646348e-01  6.94161814e-02
 1.00000000e-03  2.00600000e+03    3.39700319e-01  1.69979062e-01  7.57698743e-02
 1.25000000e-03  2.00600000e+03    3.00559975e-01  1.79821038e-01  4.08875434e-02
 1.50000000e-03  2.00600000e+03    2.63804227e-01  2.03021108e-01  2.41535776e-02
 1.75000000e-03  2.00600000e+03    2.68175447e-01  2.30161881e-01  4.15535347e-03
 2.00000000e-03  2.00600000e+03    2.00622595e-01  2.31097645e-01  1.75976182e-02
 2.25000000e-03  2.00600000e+03    1.73312838e-01  2.51207516e-01  1.51126346e-02
 2.50000000e-03  2.00600000e+03    1.41797209e-01  2.53794403e-01  2.54901378e-02
 2.75000000e-03  2.00600000e+03    1.21781783e-01  2.54408100e-01  4.11105189e-02
 3.00000000e-03  2.00600000e+03    9.74532856e-02  2.82977668e-01  4.54979520e-02
 3.25000000e-03  2.00600000e+03    6.29180339e-02  2.85726311e-01  5.92689375e-02
 3.50000000e-03  2.00600000e+03    3.17301163e-02  3.06466029e-01  6.80995747e-02
 3.75000000e-03  2.00600000e+03    1.45484241e-02  3.22616572e-01  1.99025462e-02
 4.00000000e-03  2.00600000e+03   -1.55156760e-02  2.95055384e-01  3.65358389e-02
 4.25000000e-03  2.00600000e+03   -7.18460064e-02  3.02849069e-01  5.04479024e-02
 4.50000000e-03  2.00600000e+03   -8.97031638e-02  2.91144851e-01  6.53806472e-02
 4.75000000e-03  2.00600000e+03   -1.13099034e-01  3.20762198e-01  7.99024663e-02
 5.00000000e-03  2.00600000e+03   -1.03461513e-01  3.29410508e-01  1.07074506e-01
 5.25000000e-03  2.00600000e+03   -9.44795104e-02  3.21715018e-01  1.06810231e-01
 5.50000000e-03  2.00600000e+03   -7.68457396e-02  3.30982442e-01  1.22966517e-01
 5.75000000e-03  2.00600000e+03   -9.26113572e-02  3.51041915e-01  1.33947407e-01
 6.00000000e-03  2.00600000e+03   -1.18689553e-01  3.44908232e-01  1.63644430e-01
 6.25000000e-03  2.00600000e+03   -1.13764601e-01  3.56330403e-01  1.35822349e-01
 6.50000000e-03  2.00600000e+03   -1.33275605e-01  3.26127989e-01  1.30922269e-01
 6.75000000e-03  2.00600000e+03   -1.20419274e-01  3.59108809e-01  1.24696926e-01
 7.00000000e-03  2.00600000e+03   -7.82845694e-02  3.48090449e-01  7.99000644e-02
 7.25000000e-03  2.00600000e+03   -9.80725366e-02  3.37829813e-01  8.01262706e-02
 7.50000000e-03  2.00600000e+03   -1.08453682e-01  3.16577823e-01  9.87570753e-02
 7.75000000e-03  2.00600000e+03   -1.00970408e-01  3.20168496e-01  5.52175991e-02
 8.00000000e-03  2.00600000e+03   -7.10284186e-02  3.23656599e-01  5.91718249e-02
 8.25000000e-03  2.00600000e+03   -6.56591307e-02  3.34136899e-01  2.79537961e-02
 8.50000000e-03  2.00600000e+03   -5.44748132e-02  3.38596722e-01  4.85054802e-02
 8.75000000e-03  2.00600000e+03   -5.20461459e-02  3.52240854e-01  5.43221701e-02
 9.00000000e-03  2.00600000e+03   -7.40625152e-02  3.31461466e-01  5.97824327e-02
 9.25000000e-03  2.00600000e+03   -4.67502964e-02  3.20517849e-01  4.44419708e-02
 9.50000000e-03  2.00600000e+03   -3.94478410e-02  3.34853939e-01  2.82156963e-02
 9.75000000e-03  2.00600000e+03   -5.52406523e-02  3.18072554e-01  4.71237973e-02
 0.00000000e+00  2.00700000e+03    4.53521615e-01  1.32298024e-01  8.41632228e-02
 2.50000000e-04  2.00700000e+03    4.41640584e-01  1.48719237e-01  8.52522243e-02
 5.00000000e-04  2.00700000e+03    4.40814968e-01  1.66299687e-01  6.75795104e-02
 7.50000000e-04  2.00700000e+03    3.94510135e-01  1.48396914e-01  5.95791302e-02
 1.00000000e-03  2.00700000e+03    3.49049574e-01  1.44130172e-01  6.58811336e-02
 1.25000000e-03  2.00700000e+03    3.08852811e-01  1.53730734e-01  2.96910454e-02
 1.50000000e-03  2.00700000e+03    2.71469143e-01  1.76720287e-01  1.19022944e-02
 1.75000000e-03  2.00700000e+03    2.77172927e-01  2.03246303e-01 -7.23269336e-03
 2.00000000e-03  2.00700000e+03    2.10735614e-01  2.02663776e-01  6.70016014e-03
 2.25000000e-03  2.00700000e+03    1.83417966e-01  2.24093940e-01  3.63775399e-03
 2.50000000e-03  2.00700000e+03    1.51104800e-01  2.25988587e-01  1.43357411e-02
 2.75000000e-03  2.00700000e+03    1.30229896e-01  2.26237617e-01  3.08043544e-02
 3.00000000e-03  2.00700000e+03    1.06430521e-01  2.55273787e-01  3.68520915e-02
 3.25000000e-03  2.00700000e+03    7.22773090e-02  2.57196572e-01  5.12263932e-02
 3.50000000e-03  2.00700000e+03    4.23676850e-02  2.79418188e-01  6.04609607e-02
 3.75000000e-03  2.00700000e+03    2.51047401e-02  2.96403916e-01  1.44482726e-02
 4.00000000e-03  2.00700000e+03   -5.29699779e-03  2.70876699e-01  3.25198107e-02
 4.25000000e-03  2.00700000e+03   -6.07744883e-02  2.78611348e-01  4.79692762e-02
 4.50000000e-03  2.00700000e+03   -7.76377457e-02  2.67866112e-01  6.51294798e-02
 4.75000000e-03  2.00700000e+03   -1.02347577e-01  2.98246735e-01  8.08332401e-02
 5.00000000e-03  2.00700000e+03   -9.43391840e-02  3.08774056e-01  1.10506442e-01
 5.25000000e-03  2.00700000e+03   -8.63305122e-02  3.02914519e-01  1.10069688e-01
 5.50000000e-03  2.00700000e+03   -6.87686569e-02  3.14313233e-01  1.29103593e-01
 5.75000000e-03  2.00700000e+03   -8.62914722e-02  3.36133094e-01  1.41640794e-01
 6.00000000e-03  2.00700000e+03   -1.13260208e-01  3.30662027e-01  1.71901956e-01
 6.25000000e-03  2.00700000e+03   -1.08777920e-01  3.44207203e-01  1.46224157e-01
 6.50000000e-03  2.00700000e+03   -1.28899221e-01  3.15235167e-01  1.42637748e-01
 6.75000000e-03  2.00700000e+03   -1.16418546e-01  3.48780318e-01  1.37801251e-01
 7.00000000e-03  2.00700000e+03   -7.62828431e-02  3.38576100e-01  9.41274707e-02
 7.25000000e-03  2.00700000e+03   -9.68798433e-02  3.29233725e-01  9.55659006e-02
 7.50000000e-03  2.00700000e+03   -1.07061657e-01  3.09549176e-01  1.14710930e-01
 7.75000000e-03  2.00700000e+03   -1.00807434e-01  3.15338926e-01  7.17185155e-02
 8.00000000e-03  2.00700000e+03   -7.03488548e-02  3.19751685e-01  7.61243738e-02
 8.25000000e-03  2.00700000e+03   -6.70874666e-02  3.31794575e-01  4.41707044e-02
 8.50000000e-03  2.00700000e+03   -5.71802318e-02  3.38726302e-01  6.53008805e-02
 8.75000000e-03  2.00700000e+03   -5.50514497e-02  3.53209518e-01  7.22470028e-02
 9.00000000e-03  2.00700000e+03   -7.76221209e-02  3.32689199e-01  7.67053721e-02
 9.25000000e-03  2.00700000e+03   -5.04127824e-02  3.21668390e-01  6.15429718e-02
 9.50000000e-03  2.00700000e+03   -4.28819965e-02  3.36960207e-01  4.40152270e-02
 9.75000000e-03  2.00700000e+03   -5.98109728e-02  3.21023196e-01  6.03642823e-02
 0.00000000e+00  2.00800000e+03    4.63202297e-01  1.18077419e-01  7.84803344e-02
 2.50000000e-04  2.00800000e+03    4.52621010e-01  1.32942852e-01  7.61796089e-02
 5.00000000e-04  2.00800000e+03    4.51945893e-01  1.49628074e-01  5.72106932e-02
 7.50000000e-04  2.00800000e+03    4.05541405e-01  1.29825947e-01  4.64802720e-02
 1.00000000e-03  2.00800000e+03    3.60984343e-01  1.24867876e-01  5.13103352e-02
 1.25000000e-03  2.00800000e+03    3.19253933e-01  1.33370572e-01  1.27216995e-02
 1.50000000e-03  2.00800000e+03    2.83232541e-01  1.56081728e-01 -5.95259214e-03
 1.75000000e-03  2.00800000e+03    2.88220372e-01  1.81014946e-01 -2.59099500e-02
 2.00000000e-03  2.00800000e+03    2.22842416e-01  1.78107660e-01 -1.27830190e-02
 2.25000000e-03  2.00800000e+03    1.95756890e-01  2.00228384e-01 -1.58822345e-02
 2.50000000e-03  2.00800000e+03    1.62280170e-01  2.00475405e-01 -5.19914154e-03
 2.75000000e-03  2.00800000e+03    1.40830734e-01  1.99418747e-01  1.02629308e-02
 3.00000000e-03  2.00800000e+03    1.17128375e-01  2.27416302e-01  1.57592268e-02
 3.25000000e-03  2.00800000e+03    8.14130442e-02  2.29584739e-01  2.98785269e-02
 3.50000000e-03  2.00800000e+03    5.24360188e-02  2.51460277e-01  3.87891934e-02
 3.75000000e-03  2.00800000e+03    3.56560045e-02  2.68856587e-01 -7.52573052e-03
 4.00000000e-03  2.00800000e+03    4.56155420e-03  2.44946929e-01  1.11149294e-02
 4.25000000e-03  2.00800000e+03   -4.95610825e-02  2.52777969e-01  2.74669595e-02
 4.50000000e-03  2.00800000e+03   -6.88124471e-02  2.43159279e-01  4.57011057e-02
 4.75000000e-03  2.00800000e+03   -9.45010630e-02  2.74046053e-01  6.18859059e-02
 5.00000000e-03  2.00800000e+03   -8.74546923e-02  2.86256535e-01  9.31995276e-02
 5.25000000e-03  2.00800000e+03   -8.24802086e-02  2.81835326e-01  9.37950915e-02
 5.50000000e-03  2.00800000e+03   -6.49778104e-02  2.94843642e-01  1.14413295e-01
 5.75000000e-03  2.00800000e+03   -8.47054795e-02  3.17145810e-01  1.27411836e-01
 6.00000000e-03  2.00800000e+03   -1.12333142e-01  3.12533436e-01  1.57668786e-01
 6.25000000e-03  2.00800000e+03   -1.09240700e-01  3.28689231e-01  1.34127529e-01
 6.50000000e-03  2.00800000e+03   -1.30885333e-01  3.01178005e-01  1.32271499e-01
 6.75000000e-03  2.00800000e+03   -1.19813347e-01  3.36185479e-01  1.28241344e-01
 7.00000000e-03  2.00800000e+03   -7.97665868e-02  3.28409211e-01  8.66987877e-02
 7.25000000e-03  2.00800000e+03   -1.00736143e-01  3.20265356e-01  8.87200388e-02
 7.50000000e-03  2.00800000e+03   -1.12038388e-01  3.02150014e-01  1.07244229e-01
 7.75000000e-03  2.00800000e+03   -1.06976474e-01  3.08542296e-01  6.39693888e-02
 8.00000000e-03  2.00800000e+03   -7.57287917e-02  3.13274405e-01  6.84800983e-02
 8.25000000e-03  2.00800000e+03   -7.23340285e-02  3.26100435e-01  3.74131718e-02
 8.50000000e-03  2.00800000e+03   -6.35551634e-02  3.34667127e-01  6.05604678e-02
 8.75000000e-03  2.00800000e+03   -6.16017000e-02  3.49854575e-01  7.01970117e-02
 9.00000000e-03  2.00800000e+03   -8.30278470e-02  3.28783263e-01  7.44644396e-02
 9.25000000e-03  2.00800000e+03   -5.58284710e-02  3.18937340e-01  5.92971947e-02
 9.50000000e-03  2.00800000e+03   -4.96458131e-02  3.34844811e-01  4.23204643e-02
 9.75000000e-03  2.00800000e+03   -6.72017491e-02  3.17569358e-01  5.95025392e-02
 0.00000000e+00  2.00900000e+03    4.65241199e-01  1.16560040e-01  6.11110472e-02
 2.50000000e-04  2.00900000e+03    4.52650943e-01  1.30482322e-01  5.88868615e-02
 5.00000000e-04  2.00900000e+03    4.51043394e-01  1.44630192e-01  3.98555813e-02
 7.50000000e-04  2.00900000e+03    4.02278746e-01  1.22692699e-01  3.05315881e-02