TITLE = "pert vel"
VARIABLES = "r", "z", "u", "v", "w"
ZONE i=40, j=1000
 0.00000000e+00  3.00000000e+03   -1.64029441e-01  4.48581620e-01 -1.43522018e-01
 2.50000000e-04  3.00000000e+03   -1.73399478e-01  4.46004800e-01 -1.47702352e-01
 5.00000000e-04  3.00000000e+03   -1.91599312e-01  4.33239151e-01 -1.37518385e-01
 7.50000000e-04  3.00000000e+03   -1.83624234e-01  3.98087558e-01 -1.54074206e-01
 1.00000000e-03  3.00000000e+03   -1.82637557e-01  3.42526015e-01 -1.53271228e-01
 1.25000000e-03  3.00000000e+03   -1.87129190e-01  2.79012631e-01 -1.57782520e-01
 1.50000000e-03  3.00000000e+03   -1.97828836e-01  2.34857809e-01 -1.29965447e-01
 1.75000000e-03  3.00000000e+03   -1.91947300e-01  2.64780884e-01 -1.55774844e-01
 2.00000000e-03  3.00000000e+03   -1.99678432e-01  2.68829339e-01 -1.62804828e-01
 2.25000000e-03  3.00000000e+03   -1.90558925e-01  2.35033368e-01 -1.86421744e-01
 2.50000000e-03  3.00000000e+03   -2.23644876e-01  1.91907311e-01 -1.87114920e-01
 2.75000000e-03  3.00000000e+03   -2.09301453e-01  1.68689616e-01 -1.97969842e-01
 3.00000000e-03  3.00000000e+03   -2.04130559e-01  1.58152655e-01 -1.70135948e-01
 3.25000000e-03  3.00000000e+03   -2.14901963e-01  1.29786754e-01 -1.74269408e-01
 3.50000000e-03  3.00000000e+03   -2.09404696e-01  1.19081684e-01 -1.80586452e-01
 3.75000000e-03  3.00000000e+03   -2.26438467e-01  9.69114637e-02 -1.69712586e-01
 4.00000000e-03  3.00000000e+03   -2.17404159e-01  9.73286891e-02 -2.00373831e-01
 4.25000000e-03  3.00000000e+03   -2.08426907e-01  7.26507461e-02 -1.83159206e-01
 4.50000000e-03  3.00000000e+03   -1.73708637e-01  7.93018060e-02 -1.80424604e-01
 4.75000000e-03  3.00000000e+03   -1.57219910e-01  6.94422993e-02 -1.46608200e-01
 5.00000000e-03  3.00000000e+03   -1.61940824e-01  3.90319092e-02 -1.33426776e-01
 5.25000000e-03  3.00000000e+03   -1.39069802e-01  2.19304206e-02 -1.23476901e-01
 5.50000000e-03  3.00000000e+03   -1.05083519e-01  1.96952503e-02 -1.21675060e-01
 5.75000000e-03  3.00000000e+03   -7.55401026e-02  4.69741243e-02 -9.91216250e-02
 6.00000000e-03  3.00000000e+03   -8.08885245e-02  3.73758424e-02 -6.67003579e-02
 6.25000000e-03  3.00000000e+03   -9.58389561e-02  2.89661338e-02 -5.50041370e-02
 6.50000000e-03  3.00000000e+03   -8.54600552e-02 -5.20133209e-03 -3.97980055e-02
 6.75000000e-03  3.00000000e+03   -7.00399936e-02 -2.98252473e-02 -4.42137124e-02
 7.00000000e-03  3.00000000e+03   -6.70476632e-02 -1.34061995e-02 -2.18059129e-02
 7.25000000e-03  3.00000000e+03   -5.74866257e-02 -2.09047880e-02 -1.06969204e-02
 7.50000000e-03  3.00000000e+03   -6.69634834e-02 -4.15801850e-02  1.76732857e-02
 7.75000000e-03  3.00000000e+03   -7.16410940e-02 -7.73339069e-02  3.10848252e-02
 8.00000000e-03  3.00000000e+03   -8.54120598e-02 -8.18146969e-02  4.80220705e-02
 8.25000000e-03  3.00000000e+03   -8.71366611e-02 -8.24571799e-02  6.91215679e-02
 8.50000000e-03  3.00000000e+03   -9.60829483e-02 -1.23475871e-01  1.12146307e-01
 8.75000000e-03  3.00000000e+03   -1.36117621e-01 -1.35032678e-01  1.17482404e-01
 9.00000000e-03  3.00000000e+03   -1.36723630e-01 -1.64082235e-01  1.25252127e-01
 9.25000000e-03  3.00000000e+03   -1.57798339e-01 -1.68275667e-01  1.43744914e-01
 9.50000000e-03  3.00000000e+03   -1.80800755e-01 -1.86591117e-01  1.81503853e-01
 9.75000000e-03  3.00000000e+03   -2.29117361e-01 -1.91111127e-01  2.00795102e-01
 0.00000000e+00  3.00100000e+03   -1.65552501e-01  4.47114351e-01 -1.35443369e-01
 2.50000000e-04  3.00100000e+03   -1.76594091e-01  4.46198380e-01 -1.40294056e-01
 5.00000000e-04  3.00100000e+03   -1.95514706e-01  4.33246262e-01 -1.30344546e-01
 7.50000000e-04  3.00100000e+03   -1.86689259e-01  3.99108284e-01 -1.46648273e-01
 1.00000000e-03  3.00100000e+03   -1.86017108e-01  3.44885034e-01 -1.46137632e-01
 1.25000000e-03  3.00100000e+03   -1.92062944e-01  2.81518472e-01 -1.51142097e-01
 1.50000000e-03  3.00100000e+03   -2.02447907e-01  2.36780029e-01 -1.24563933e-01
 1.75000000e-03  3.00100000e+03   -1.98198035e-01  2.68358750e-01 -1.51780333e-01
 2.00000000e-03  3.00100000e+03   -2.04746288e-01  2.74160041e-01 -1.59196502e-01
 2.25000000e-03  3.00100000e+03   -1.95724881e-01  2.41362134e-01 -1.84970053e-01
 2.50000000e-03  3.00100000e+03   -2.29409584e-01  1.98292600e-01 -1.85687254e-01
 2.75000000e-03  3.00100000e+03   -2.15936015e-01  1.74164969e-01 -1.98081149e-01
 3.00000000e-03  3.00100000e+03   -2.11061912e-01  1.64253170e-01 -1.72246598e-01
 3.25000000e-03  3.00100000e+03   -2.21590782e-01  1.37370813e-01 -1.78006149e-01
 3.50000000e-03  3.00100000e+03   -2.15313427e-01  1.27595117e-01 -1.84731426e-01
 3.75000000e-03  3.00100000e+03   -2.31545593e-01  1.06016010e-01 -1.74605948e-01
 4.00000000e-03  3.00100000e+03   -2.22002543e-01  1.05911937e-01 -2.05701014e-01
 4.25000000e-03  3.00100000e+03   -2.11629148e-01  8.06342114e-02 -1.90969617e-01
 4.50000000e-03  3.00100000e+03   -1.76989589e-01  8.74133828e-02 -1.88636094e-01
 4.75000000e-03  3.00100000e+03   -1.58227256e-01  7.69589734e-02 -1.55787750e-01
 5.00000000e-03  3.00100000e+03   -1.61468944e-01  4.66667766e-02 -1.42648505e-01
 5.25000000e-03  3.00100000e+03   -1.38612670e-01  2.84481812e-02 -1.32923090e-01
 5.50000000e-03  3.00100000e+03   -1.04547258e-01  2.51710074e-02 -1.32258445e-01
 5.75000000e-03  3.00100000e+03   -7.46483078e-02  5.20731576e-02 -1.10345950e-01
 6.00000000e-03  3.00100000e+03   -7.85843629e-02  4.24422270e-02 -7.92611519e-02
 6.25000000e-03  3.00100000e+03   -9.37371860e-02  3.32752918e-02 -6.87377233e-02
 6.50000000e-03  3.00100000e+03   -8.10242371e-02 -1.94850921e-03 -5.42897744e-02
 6.75000000e-03  3.00100000e+03   -6.27822235e-02 -2.79241809e-02 -5.91330496e-02
 7.00000000e-03  3.00100000e+03   -5.98925429e-02 -1.25135912e-02 -3.66395273e-02
 7.25000000e-03  3.00100000e+03   -4.97033242e-02 -2.24762487e-02 -2.53503294e-02
 7.50000000e-03  3.00100000e+03   -5.87168583e-02 -4.46148821e-02  1.00152318e-03
 7.75000000e-03  3.00100000e+03   -6.18736393e-02 -8.19647675e-02  1.39573118e-02
 8.00000000e-03  3.00100000e+03   -7.48421030e-02 -8.73424838e-02  3.05943436e-02
 8.25000000e-03  3.00100000e+03   -7.62568974e-02 -8.95135270e-02  5.09149760e-02
 8.50000000e-03  3.00100000e+03   -8.58968808e-02 -1.29653680e-01  9.32502501e-02
 8.75000000e-03  3.00100000e+03   -1.25854214e-01 -1.42615180e-01  9.70970079e-02
 9.00000000e-03  3.00100000e+03   -1.26560471e-01 -1.71753072e-01  1.03598456e-01
 9.25000000e-03  3.00100000e+03   -1.48978374e-01 -1.76380997e-01  1.21180164e-01
 9.50000000e-03  3.00100000e+03   -1.71798985e-01 -1.95723161e-01  1.59870343e-01
 9.75000000e-03  3.00100000e+03   -2.21373879e-01 -2.00485271e-01  1.78661374e-01
 0.00000000e+00  3.00200000e+03   -1.71122562e-01  4.36550265e-01 -1.14612855e-01
 2.50000000e-04  3.00200000e+03   -1.84984952e-01  4.36026520e-01 -1.18071988e-01
 5.00000000e-04  3.00200000e+03   -2.05288636e-01  4.22480477e-01 -1.05425702e-01
 7.50000000e-04  3.00200000e+03   -1.97857804e-01  3.88249636e-01 -1.20257196e-01
 1.00000000e-03  3.00200000e+03   -1.98322229e-01  3.35289257e-01 -1.17760836e-01
 1.25000000e-03  3.00200000e+03   -2.05475772e-01  2.71615420e-01 -1.22868972e-01
 1.50000000e-03  3.00200000e+03   -2.17667341e-01  2.27119941e-01 -9.64831653e-02
 1.75000000e-03  3.00200000e+03   -2.14888094e-01  2.59200692e-01 -1.24456475e-01
 2.00000000e-03  3.00200000e+03   -2.21515838e-01  2.63911765e-01 -1.32280446e-01
 2.25000000e-03  3.00200000e+03   -2.12615992e-01  2.32326435e-01 -1.58380246e-01
 2.50000000e-03  3.00200000e+03   -2.46518135e-01  1.88780449e-01 -1.59691782e-01
 2.75000000e-03  3.00200000e+03   -2.33368869e-01  1.64881063e-01 -1.73110136e-01
 3.00000000e-03  3.00200000e+03   -2.28299714e-01  1.55152952e-01 -1.47830271e-01
 3.25000000e-03  3.00200000e+03   -2.38537845e-01  1.29821321e-01 -1.55367492e-01
 3.50000000e-03  3.00200000e+03   -2.31642082e-01  1.21984058e-01 -1.63623594e-01
 3.75000000e-03  3.00200000e+03   -2.46692554e-01  1.01167406e-01 -1.54512434e-01
 4.00000000e-03  3.00200000e+03   -2.34955070e-01  1.02127972e-01 -1.85969822e-01
 4.25000000e-03  3.00200000e+03   -2.23220695e-01  7.62981202e-02 -1.74488313e-01
 4.50000000e-03  3.00200000e+03   -1.86995129e-01  8.45007080e-02 -1.74555654e-01
 4.75000000e-03  3.00200000e+03   -1.66730533e-01  7.47508544e-02 -1.44211336e-01
 5.00000000e-03  3.00200000e+03   -1.68548878e-01  4.37385579e-02 -1.31405906e-01
 5.25000000e-03  3.00200000e+03   -1.43157517e-01  2.64951620e-02 -1.20951496e-01
 5.50000000e-03  3.00200000e+03   -1.07579986e-01  2.28901196e-02 -1.23055273e-01
 5.75000000e-03  3.00200000e+03   -7.75813235e-02  5.05816045e-02 -1.03245437e-01
 6.00000000e-03  3.00200000e+03   -8.01286180e-02  4.24035283e-02 -7.32646856e-02
 6.25000000e-03  3.00200000e+03   -9.63237123e-02  3.42256777e-02 -6.39318584e-02
 6.50000000e-03  3.00200000e+03   -8.25918768e-02  4.75564067e-04 -5.11579662e-02
 6.75000000e-03  3.00200000e+03   -6.38053487e-02 -2.27404104e-02 -5.69470774e-02
 7.00000000e-03  3.00200000e+03   -6.04570674e-02 -7.33853689e-03 -3.60033114e-02
 7.25000000e-03  3.00200000e+03   -4.96529392e-02 -1.57135361e-02 -2.69802761e-02
 7.50000000e-03  3.00200000e+03   -5.88706184e-02 -3.86541029e-02 -2.12106252e-03
 7.75000000e-03  3.00200000e+03   -6.31289470e-02 -7.54493525e-02  8.59305017e-03
 8.00000000e-03  3.00200000e+03   -7.76850721e-02 -8.06255030e-02  2.36724399e-02
 8.25000000e-03  3.00200000e+03   -8.11811894e-02 -8.44517455e-02  4.33821295e-02
 8.50000000e-03  3.00200000e+03   -9.17327551e-02 -1.23660005e-01  8.38539478e-02
 8.75000000e-03  3.00200000e+03   -1.33757319e-01 -1.37347113e-01  8.67086629e-02
 9.00000000e-03  3.00200000e+03   -1.36503425e-01 -1.66742026e-01  9.18384878e-02
 9.25000000e-03  3.00200000e+03   -1.61419757e-01 -1.71891686e-01  1.09026367e-01
 9.50000000e-03  3.00200000e+03   -1.86653684e-01 -1.92362602e-01  1.47893681e-01
 9.75000000e-03  3.00200000e+03   -2.38225201e-01 -1.97469369e-01  1.66026266e-01
 0.00000000e+00  3.00300000e+03   -1.97738173e-01  4.40644709e-01 -1.09090549e-01
 2.50000000e-04  3.00300000e+03   -2.12628336e-01  4.41035830e-01 -1.13641014e-01
 5.00000000e-04  3.00300000e+03   -2.31787044e-01  4.26863213e-01 -1.01916735e-01
 7.50000000e-04  3.00300000e+03   -2.23881483e-01  3.93981193e-01 -1.17877867e-01
 1.00000000e-03  3.00300000e+03   -2.23241603e-01  3.41213823e-01 -1.14737625e-01
 1.25000000e-03  3.00300000e+03   -2.28051066e-01  2.78458127e-01 -1.20078463e-01
 1.50000000e-03  3.00300000e+03   -2.40203245e-01  2.33782081e-01 -9.29588645e-02
 1.75000000e-03  3.00300000e+03   -2.35915586e-01  2.66464802e-01 -1.22607016e-01
 2.00000000e-03  3.00300000e+03   -2.40675369e-01  2.72005258e-01 -1.31183122e-01
 2.25000000e-03  3.00300000e+03   -2.29277136e-01  2.41102666e-01 -1.56510345e-01
 2.50000000e-03  3.00300000e+03   -2.61323751e-01  1.97843171e-01 -1.57420552e-01
 2.75000000e-03  3.00300000e+03   -2.46039287e-01  1.73160636e-01 -1.71637571e-01
 3.00000000e-03  3.00300000e+03   -2.37848941e-01  1.64725127e-01 -1.45810989e-01
 3.25000000e-03  3.00300000e+03   -2.45339884e-01  1.38904592e-01 -1.53315908e-01
 3.50000000e-03  3.00300000e+03   -2.36088511e-01  1.30610735e-01 -1.60816373e-01
 3.75000000e-03  3.00300000e+03   -2.47757925e-01  1.09015877e-01 -1.49920521e-01
 4.00000000e-03  3.00300000e+03   -2.33439972e-01  1.10179195e-01 -1.79007375e-01
 4.25000000e-03  3.00300000e+03   -2.18885300e-01  8.33807589e-02 -1.67380202e-01
 4.50000000e-03  3.00300000e+03   -1.80781410e-01  9.18548327e-02 -1.66169600e-01
 4.75000000e-03  3.00300000e+03   -1.56722070e-01  8.09390831e-02 -1.35557571e-01
 5.00000000e-03  3.00300000e+03   -1.56132730e-01  4.79608078e-02 -1.21949008e-01
 5.25000000e-03  3.00300000e+03   -1.28543710e-01  3.01640343e-02 -1.09613803e-01
 5.50000000e-03  3.00300000e+03   -9.14666049e-02  2.56471779e-02 -1.12039377e-01
 5.75000000e-03  3.00300000e+03   -5.91979377e-02  5.31666817e-02 -9.12663585e-02
 6.00000000e-03  3.00300000e+03   -5.95200070e-02  4.44587070e-02 -6.00623325e-02
 6.25000000e-03  3.00300000e+03   -7.68700557e-02  3.58610580e-02 -5.13872316e-02
 6.50000000e-03  3.00300000e+03   -6.22506909e-02  1.65360866e-03 -3.79554889e-02
 6.75000000e-03  3.00300000e+03   -4.23306082e-02 -2.18274136e-02 -4.30260583e-02
 7.00000000e-03  3.00300000e+03   -3.98347836e-02 -7.05252569e-03 -2.22274577e-02
 7.25000000e-03  3.00300000e+03   -2.83135121e-02 -1.66283545e-02 -1.31076165e-02
 7.50000000e-03  3.00300000e+03   -3.90398715e-02 -4.00009489e-02  1.25164156e-02
 7.75000000e-03  3.00300000e+03   -4.22140063e-02 -7.57677062e-02  2.34104490e-02
 8.00000000e-03  3.00300000e+03   -5.77075129e-02 -8.05043824e-02  3.93813184e-02
 8.25000000e-03  3.00300000e+03   -6.26178843e-02 -8.49647529e-02  5.88340964e-02
 8.50000000e-03  3.00300000e+03   -7.44885354e-02 -1.22513228e-01  9.92391948e-02
 8.75000000e-03  3.00300000e+03   -1.19662488e-01 -1.37026969e-01  1.00978953e-01
 9.00000000e-03  3.00300000e+03   -1.24274591e-01 -1.65056474e-01  1.04861318e-01
 9.25000000e-03  3.00300000e+03   -1.51434832e-01 -1.69966414e-01  1.21529985e-01
 9.50000000e-03  3.00300000e+03   -1.79030741e-01 -1.90374199e-01  1.60046193e-01
 9.75000000e-03  3.00300000e+03   -2.31548657e-01 -1.94721946e-01  1.76439218e-01
 0.00000000e+00  3.00400000e+03   -2.20990671e-01  4.24054307e-01 -8.19016125e-02
 2.50000000e-04  3.00400000e+03   -2.39643591e-01  4.25862736e-01 -8.75143500e-02
 5.00000000e-04  3.00400000e+03   -2.58442321e-01  4.11756124e-01 -7.67058968e-02
 7.50000000e-04  3.00400000e+03   -2.50222389e-01  3.79137306e-01 -9.27657142e-02
 1.00000000e-03  3.00400000e+03   -2.50962103e-01  3.26947763e-01 -9.16141565e-02
 1.25000000e-03  3.00400000e+03   -2.55302230e-01  2.64952403e-01 -9.91013793e-02
 1.50000000e-03  3.00400000e+03   -2.68214740e-01  2.21447983e-01 -7.25814742e-02
 1.75000000e-03  3.00400000e+03   -2.64022075e-01  2.55759320e-01 -1.04340744e-01
 2.00000000e-03  3.00400000e+03   -2.67679548e-01  2.63309585e-01 -1.14251539e-01
 2.25000000e-03  3.00400000e+03   -2.55697442e-01  2.35421019e-01 -1.41648363e-01
 2.50000000e-03  3.00400000e+03   -2.87219541e-01  1.93427564e-01 -1.43246921e-01
 2.75000000e-03  3.00400000e+03   -2.69611878e-01  1.69009452e-01 -1.58723253e-01
 3.00000000e-03  3.00400000e+03   -2.58011162e-01  1.63306611e-01 -1.33781959e-01
 3.25000000e-03  3.00400000e+03   -2.64627719e-01  1.38625459e-01 -1.41643542e-01
 3.50000000e-03  3.00400000e+03   -2.52747671e-01  1.32529998e-01 -1.50303060e-01
 3.75000000e-03  3.00400000e+03   -2.62176153e-01  1.14128643e-01 -1.40602524e-01
 4.00000000e-03  3.00400000e+03   -2.44072875e-01  1.17441586e-01 -1.70579823e-01
 4.25000000e-03  3.00400000e+03   -2.27020867e-01  9.06419124e-02 -1.59915278e-01
 4.50000000e-03  3.00400000e+03   -1.84968525e-01  1.02238706e-01 -1.60138260e-01
 4.75000000e-03  3.00400000e+03   -1.57173130e-01  9.35894495e-02 -1.31497908e-01
 5.00000000e-03  3.00400000e+03   -1.53250280e-01  6.08772657e-02 -1.18664315e-01
 5.25000000e-03  3.00400000e+03   -1.22389062e-01  4.37837081e-02 -1.06358323e-01
 5.50000000e-03  3.00400000e+03   -8.13350297e-02  4.10049581e-02 -1.09905901e-01
 5.75000000e-03  3.00400000e+03   -4.72567893e-02  7.00319861e-02 -9.10665647e-02
 6.00000000e-03  3.00400000e+03   -4.38102591e-02  6.23297772e-02 -6.18489384e-02
 6.25000000e-03  3.00400000e+03   -5.96666717e-02  5.52971102e-02 -5.48641259e-02
 6.50000000e-03  3.00400000e+03   -4.40839527e-02  2.29481775e-02 -4.30986412e-02
 6.75000000e-03  3.00400000e+03   -2.30990081e-02 -1.24027920e-03 -4.99909659e-02
 7.00000000e-03  3.00400000e+03   -1.91472312e-02  1.21014342e-02 -3.06798374e-02
 7.25000000e-03  3.00400000e+03   -7.02850466e-03  2.23944797e-03 -2.40996301e-02
 7.50000000e-03  3.00400000e+03   -1.59419982e-02 -2.16412729e-02 -1.31907364e-04
 7.75000000e-03  3.00400000e+03   -1.93930586e-02 -5.81388554e-02  9.24861420e-03
 8.00000000e-03  3.00400000e+03   -3.46752185e-02 -6.33394115e-02  2.39568046e-02
 8.25000000e-03  3.00400000e+03   -4.06982844e-02 -6.92623989e-02  4.08080734e-02
 8.50000000e-03  3.00400000e+03   -5.42017733e-02 -1.07330976e-01  7.94950682e-02
 8.75000000e-03  3.00400000e+03   -1.01174882e-01 -1.23193005e-01  8.07587321e-02
 9.00000000e-03  3.00400000e+03   -1.09331927e-01 -1.52716690e-01  8.19628481e-02
 9.25000000e-03  3.00400000e+03   -1.38959672e-01 -1.60241617e-01  9.68555277e-02
 9.50000000e-03  3.00400000e+03   -1.69035627e-01 -1.82167125e-01  1.34473439e-01
 9.75000000e-03  3.00400000e+03   -2.22417633e-01 -1.87364435e-01  1.47643052e-01
 0.00000000e+00  3.00500000e+03   -2.21108842e-01  4.14473203e-01 -9.06081323e-02
 2.50000000e-04  3.00500000e+03   -2.42075460e-01  4.18342113e-01 -9.78701185e-02
 5.00000000e-04  3.00500000e+03   -2.60398913e-01  4.04650004e-01 -8.76936693e-02
 7.50000000e-04  3.00500000e+03   -2.51015962e-01  3.74091439e-01 -1.03986069e-01
 1.00000000e-03  3.00500000e+03   -2.52273787e-01  3.23835662e-01 -1.03445856e-01
 1.25000000e-03  3.00500000e+03   -2.56092306e-01  2.63392932e-01 -1.11936721e-01
 1.50000000e-03  3.00500000e+03   -2.68810232e-01  2.23003336e-01 -8.65117869e-02
 1.75000000e-03  3.00500000e+03   -2.65418376e-01  2.59374561e-01 -1.19273990e-01
 2.00000000e-03  3.00500000e+03   -2.68401708e-01  2.68414772e-01 -1.31257896e-01
 2.25000000e-03  3.00500000e+03   -2.55407777e-01  2.41726993e-01 -1.60392007e-01
 2.50000000e-03  3.00500000e+03   -2.85729697e-01  2.01710429e-01 -1.62713693e-01
 2.75000000e-03  3.00500000e+03   -2.67187645e-01  1.77374189e-01 -1.79015681e-01
 3.00000000e-03  3.00500000e+03   -2.53329948e-01  1.72867261e-01 -1.54567913e-01
 3.25000000e-03  3.00500000e+03   -2.58292325e-01  1.49644294e-01 -1.63127170e-01
 3.50000000e-03  3.00500000e+03   -2.45587205e-01  1.45378683e-01 -1.72524363e-01
 3.75000000e-03  3.00500000e+03   -2.52688592e-01  1.28587196e-01 -1.62979196e-01
 4.00000000e-03  3.00500000e+03   -2.32812642e-01  1.34269218e-01 -1.93182992e-01
 4.25000000e-03  3.00500000e+03   -2.14704037e-01  1.08317924e-01 -1.83011813e-01
 4.50000000e-03  3.00500000e+03   -1.72726017e-01  1.21291766e-01 -1.83951168e-01
 4.75000000e-03  3.00500000e+03   -1.42662733e-01  1.12683121e-01 -1.56521887e-01
 5.00000000e-03  3.00500000e+03   -1.36332748e-01  8.08526455e-02 -1.43853364e-01
 5.25000000e-03  3.00500000e+03   -1.04411957e-01  6.36540196e-02 -1.31214526e-01
 5.50000000e-03  3.00500000e+03   -6.14262139e-02  6.25181284e-02 -1.35548450e-01
 5.75000000e-03  3.00500000e+03   -2.63029890e-02  9.29982844e-02 -1.16050207e-01
 6.00000000e-03  3.00500000e+03   -2.20760800e-02  8.49916050e-02 -8.70200704e-02
 6.25000000e-03  3.00500000e+03   -3.83353024e-02  7.80187228e-02 -8.08089001e-02
 6.50000000e-03  3.00500000e+03   -2.24372803e-02  4.68636956e-02 -6.83803034e-02
 6.75000000e-03  3.00500000e+03   -8.50212077e-04  2.31780283e-02 -7.45881073e-02
 7.00000000e-03  3.00500000e+03    2.89167075e-03  3.53058172e-02 -5.61300238e-02
 7.25000000e-03  3.00500000e+03    1.50873122e-02  2.55897804e-02 -4.87042373e-02
 7.50000000e-03  3.00500000e+03    5.58161177e-03  6.91281767e-05 -2.42215260e-02
 7.75000000e-03  3.00500000e+03    1.65870572e-03 -3.69781932e-02 -1.52588624e-02
 8.00000000e-03  3.00500000e+03   -1.35435290e-02 -4.15762964e-02 -7.69686375e-04
 8.25000000e-03  3.00500000e+03   -2.02337477e-02 -4.78730518e-02  1.62695461e-02
 8.50000000e-03  3.00500000e+03   -3.46478634e-02 -8.56542863e-02  5.53670957e-02
 8.75000000e-03  3.00500000e+03   -8.25270489e-02 -1.02871567e-01  5.71150159e-02
 9.00000000e-03  3.00500000e+03   -9.32254304e-02 -1.30710399e-01  5.88647175e-02
 9.25000000e-03  3.00500000e+03   -1.23860695e-01 -1.38504970e-01  7.40430893e-02
 9.50000000e-03  3.00500000e+03   -1.53961967e-01 -1.61428900e-01  1.12245236e-01
 9.75000000e-03  3.00500000e+03   -2.09146052e-01 -1.66355922e-01  1.25377069e-01
 0.00000000e+00  3.00600000e+03   -2.29049385e-01  4.01261690e-01 -7.42392454e-02
 2.50000000e-04  3.00600000e+03   -2.53880420e-01  4.04503634e-01 -8.06883719e-02
 5.00000000e-04  3.00600000e+03   -2.74300765e-01  3.89729833e-01 -7.08176272e-02
 7.50000000e-04  3.00600000e+03   -2.66378789e-01  3.59895172e-01 -8.68953578e-02
 1.00000000e-03  3.00600000e+03   -2.68915235e-01  3.09669926e-01 -8.49602201e-02
 1.25000000e-03  3.00600000e+03   -2.73428362e-01  2.48817135e-01 -9.25701138e-02
 1.50000000e-03  3.00600000e+03   -2.86852455e-01  2.07437090e-01 -6.79578634e-02
 1.75000000e-03  3.00600000e+03   -2.84030020e-01  2.44705394e-01 -9.99018960e-02
 2.00000000e-03  3.00600000e+03   -2.86863707e-01  2.54138311e-01 -1.12042020e-01
 2.25000000e-03  3.00600000e+03   -2.73542539e-01  2.28563182e-01 -1.40469538e-01
 2.50000000e-03  3.00600000e+03   -3.03652376e-01  1.89775523e-01 -1.43135969e-01
 2.75000000e-03  3.00600000e+03   -2.83509796e-01  1.66461790e-01 -1.60187717e-01
 3.00000000e-03  3.00600000e+03   -2.68945866e-01  1.62787844e-01 -1.35641775e-01
 3.25000000e-03  3.00600000e+03   -2.71942879e-01  1.40910538e-01 -1.44285182e-01
 3.50000000e-03  3.00600000e+03   -2.58584695e-01  1.37123490e-01 -1.53851869e-01
 3.75000000e-03  3.00600000e+03   -2.62979388e-01  1.22294148e-01 -1.44334094e-01
 4.00000000e-03  3.00600000e+03   -2.41270177e-01  1.30114470e-01 -1.74039601e-01
 4.25000000e-03  3.00600000e+03   -2.21889222e-01  1.03328569e-01 -1.64825921e-01
 4.50000000e-03  3.00600000e+03   -1.77447467e-01  1.18586130e-01 -1.65618198e-01
 4.75000000e-03  3.00600000e+03   -1.45719661e-01  1.10761289e-01 -1.38906108e-01
 5.00000000e-03  3.00600000e+03   -1.37784669e-01  7.93809762e-02 -1.28347451e-01
 5.25000000e-03  3.00600000e+03   -1.03524845e-01  6.21906196e-02 -1.15203028e-01
 5.50000000e-03  3.00600000e+03   -5.89978473e-02  6.24961605e-02 -1.21319265e-01
 5.75000000e-03  3.00600000e+03   -2.28355259e-02  9.33524497e-02 -1.01814167e-01
 6.00000000e-03  3.00600000e+03   -1.74334231e-02  8.62394413e-02 -7.40395840e-02
 6.25000000e-03  3.00600000e+03   -3.19063691e-02  8.03690909e-02 -6.98844518e-02
 6.50000000e-03  3.00600000e+03   -1.41413261e-02  4.87571982e-02 -5.94647605e-02
 6.75000000e-03  3.00600000e+03    8.02193434e-03  2.54717225e-02 -6.56292307e-02
 7.00000000e-03  3.00600000e+03    1.31992530e-02  3.66748068e-02 -4.85453942e-02
 7.25000000e-03  3.00600000e+03    2.65187846e-02  2.58021604e-02 -4.28519096e-02
 7.50000000e-03  3.00600000e+03    1.81433190e-02 -1.87311083e-03 -1.89403000e-02
 7.75000000e-03  3.00600000e+03    1.55005422e-02 -3.85651015e-02 -1.17641312e-02
 8.00000000e-03  3.00600000e+03    5.47501588e-04 -4.20043491e-02  1.18117076e-03
 8.25000000e-03  3.00600000e+03   -6.37491762e-03 -5.08008605e-02  1.80036115e-02
 8.50000000e-03  3.00600000e+03   -2.05198092e-02 -8.97032728e-02  5.54513293e-02
 8.75000000e-03  3.00600000e+03   -6.84145547e-02 -1.08046823e-01  5.53670323e-02
 9.00000000e-03  3.00600000e+03   -7.79563948e-02 -1.36103054e-01  5.63227450e-02
 9.25000000e-03  3.00600000e+03   -1.08198411e-01 -1.44677479e-01  7.13380281e-02
 9.50000000e-03  3.00600000e+03   -1.37666368e-01 -1.68065619e-01  1.08962019e-01
 9.75000000e-03  3.00600000e+03   -1.90975147e-01 -1.73031218e-01  1.19839795e-01
 0.00000000e+00  3.00700000e+03   -2.26697321e-01  3.90710066e-01 -8.11050095e-02
 2.50000000e-04  3.00700000e+03   -2.53006042e-01  3.94156931e-01 -8.68753101e-02
 5.00000000e-04  3.00700000e+03   -2.74258520e-01  3.78876416e-01 -7.65045746e-02
 7.50000000e-04  3.00700000e+03   -2.66126194e-01  3.50368836e-01 -9.23965944e-02
 1.00000000e-03  3.00700000e+03   -2.68798703e-01  2.99973498e-01 -8.84453615e-02
 1.25000000e-03  3.00700000e+03   -2.73135076e-01  2.38326502e-01 -9.54628443e-02
 1.50000000e-03  3.00700000e+03   -2.87242244e-01  1.97565045e-01 -7.09712275e-02
 1.75000000e-03  3.00700000e+03   -2.84222515e-01  2.34344617e-01 -1.03533939e-01
 2.00000000e-03  3.00700000e+03   -2.87791034e-01  2.42970463e-01 -1.14699570e-01
 2.25000000e-03  3.00700000e+03   -2.74157814e-01  2.17899783e-01 -1.42344858e-01
 2.50000000e-03  3.00700000e+03   -3.04764816e-01  1.80679598e-01 -1.44560879e-01
 2.75000000e-03  3.00700000e+03   -2.83348962e-01  1.57030841e-01 -1.61272911e-01
 3.00000000e-03  3.00700000e+03   -2.67400391e-01  1.53164088e-01 -1.34446480e-01
 3.25000000e-03  3.00700000e+03   -2.70544590e-01  1.30785724e-01 -1.42797963e-01
 3.50000000e-03  3.00700000e+03   -2.56817812e-01  1.28967526e-01 -1.52352012e-01
 3.75000000e-03  3.00700000e+03   -2.58431947e-01  1.14815079e-01 -1.42589364e-01
 4.00000000e-03  3.00700000e+03   -2.35453690e-01  1.22758226e-01 -1.70817759e-01
 4.25000000e-03  3.00700000e+03   -2.15936469e-01  9.51820386e-02 -1.61313462e-01
 4.50000000e-03  3.00700000e+03   -1.71704562e-01  1.12659767e-01 -1.63091301e-01
 4.75000000e-03  3.00700000e+03   -1.37363089e-01  1.04389236e-01 -1.36974386e-01
 5.00000000e-03  3.00700000e+03   -1.29049711e-01  7.42968876e-02 -1.25809543e-01
 5.25000000e-03  3.00700000e+03   -9.42742236e-02  5.66609921e-02 -1.12372035e-01
 5.50000000e-03  3.00700000e+03   -4.99301238e-02  5.72491019e-02 -1.18448911e-01
 5.75000000e-03  3.00700000e+03   -1.40160955e-02  8.83637379e-02 -9.87961984e-02
 6.00000000e-03  3.00700000e+03   -7.46734463e-03  8.20351585e-02 -7.18184189e-02
 6.25000000e-03  3.00700000e+03   -2.10996176e-02  7.63450556e-02 -6.75091540e-02
 6.50000000e-03  3.00700000e+03   -3.13126929e-03  4.57253778e-02 -5.59641016e-02
 6.75000000e-03  3.00700000e+03    1.93390200e-02  2.34890500e-02 -6.18201143e-02
 7.00000000e-03  3.00700000e+03    2.47343799e-02  3.51729137e-02 -4.56179360e-02
 7.25000000e-03  3.00700000e+03    3.71284877e-02  2.56330997e-02 -4.13078186e-02
 7.50000000e-03  3.00700000e+03    2.90338560e-02 -1.29923181e-03 -1.82931695e-02
 7.75000000e-03  3.00700000e+03    2.53871190e-02 -3.55236227e-02 -1.17002155e-02
 8.00000000e-03  3.00700000e+03    1.07147009e-02 -3.71615294e-02 -8.33197479e-04
 8.25000000e-03  3.00700000e+03    2.62247115e-03 -4.65521877e-02  1.52175210e-02
 8.50000000e-03  3.00700000e+03   -1.27132375e-02 -8.30728607e-02  5.11918876e-02
 8.75000000e-03  3.00700000e+03   -6.14866529e-02 -1.02470472e-01  5.04080693e-02
 9.00000000e-03  3.00700000e+03   -7.19755256e-02 -1.28214324e-01  5.01404001e-02
 9.25000000e-03  3.00700000e+03   -1.04239899e-01 -1.35795987e-01  6.54760587e-02
 9.50000000e-03  3.00700000e+03   -1.34403752e-01 -1.57956980e-01  1.02718142e-01
 9.75000000e-03  3.00700000e+03   -1.88089883e-01 -1.61876566e-01  1.11785077e-01
 0.00000000e+00  3.00800000e+03   -2.51608287e-01  3.78812848e-01 -9.28633517e-02
 2.50000000e-04  3.00800000e+03   -2.78898913e-01  3.83168814e-01 -9.92046012e-02
 5.00000000e-04  3.00800000e+03   -3.00802226e-01  3.68592960e-01 -8.92153677e-02
 7.50000000e-04  3.00800000e+03   -2.91794599e-01  3.40605920e-01 -1.05042518e-01
 1.00000000e-03  3.00800000e+03   -2.93594860e-01  2.91295065e-01 -1.01929528e-01
 1.25000000e-03  3.00800000e+03   -2.94846738e-01  2.30971621e-01 -1.09357860e-01
 1.50000000e-03  3.00800000e+03   -3.09381184e-01  1.91130015e-01 -8.63484784e-02
 1.75000000e-03  3.00800000e+03   -3.04861505e-01  2.29849971e-01 -1.20916273e-01
 2.00000000e-03  3.00800000e+03   -3.07004066e-01  2.40249800e-01 -1.32573863e-01
 2.25000000e-03  3.00800000e+03   -2.92580612e-01  2.16727479e-01 -1.61614768e-01
 2.50000000e-03  3.00800000e+03   -3.20868868e-01  1.80275083e-01 -1.64171210e-01
 2.75000000e-03  3.00800000e+03   -2.97394042e-01  1.57675455e-01 -1.82248828e-01
 3.00000000e-03  3.00800000e+03   -2.79353589e-01  1.55090602e-01 -1.56031142e-01
 3.25000000e-03  3.00800000e+03   -2.82685717e-01  1.32999367e-01 -1.64881974e-01
 3.50000000e-03  3.00800000e+03   -2.65790175e-01  1.32834752e-01 -1.73449024e-01
 3.75000000e-03  3.00800000e+03   -2.64457148e-01  1.19656806e-01 -1.63264085e-01
 4.00000000e-03  3.00800000e+03   -2.38956441e-01  1.30010223e-01 -1.90263397e-01
 4.25000000e-03  3.00800000e+03   -2.16317237e-01  1.03010176e-01 -1.81147151e-01
 4.50000000e-03  3.00800000e+03   -1.71380661e-01  1.21711245e-01 -1.83905739e-01
 4.75000000e-03  3.00800000e+03   -1.34561382e-01  1.13221838e-01 -1.58087103e-01
 5.00000000e-03  3.00800000e+03   -1.24604641e-01  8.40530922e-02 -1.46905487e-01
 5.25000000e-03  3.00800000e+03   -8.74533785e-02  6.54963370e-02 -1.31209155e-01
 5.50000000e-03  3.00800000e+03   -4.12744630e-02  6.65351070e-02 -1.36499785e-01
 5.75000000e-03  3.00800000e+03   -3.81132220e-03  9.79430163e-02 -1.15216315e-01
 6.00000000e-03  3.00800000e+03    4.48037053e-03  9.23209619e-02 -8.86951291e-02
 6.25000000e-03  3.00800000e+03   -7.62510449e-03  8.60800073e-02 -8.37777613e-02
 6.50000000e-03  3.00800000e+03    1.12206990e-02  5.70599554e-02 -7.02881106e-02
 6.75000000e-03  3.00800000e+03    3.55908311e-02  3.64177703e-02 -7.51052855e-02
 7.00000000e-03  3.00800000e+03    4.32576554e-02  4.61002386e-02 -5.70672510e-02
 7.25000000e-03  3.00800000e+03    5.65144858e-02  3.66537016e-02 -5.12883433e-02
 7.50000000e-03  3.00800000e+03    4.88612804e-02  8.23348303e-03 -2.76015869e-02
 7.75000000e-03  3.00800000e+03    4.50419894e-02 -2.59758921e-02 -1.92298106e-02
 8.00000000e-03  3.00800000e+03    3.19344006e-02 -2.84536894e-02 -7.14894840e-03
 8.25000000e-03  3.00800000e+03    2.36708308e-02 -3.98768688e-02  9.33206842e-03
 8.50000000e-03  3.00800000e+03    7.95865182e-03 -7.66449881e-02  4.62422856e-02
 8.75000000e-03  3.00800000e+03   -4.14665298e-02 -9.72040949e-02  4.72014241e-02
 9.00000000e-03  3.00800000e+03   -5.17685932e-02 -1.22792520e-01  4.78431798e-02
 9.25000000e-03  3.00800000e+03   -8.44058157e-02 -1.30897436e-01  6.38919735e-02
 9.50000000e-03  3.00800000e+03   -1.15408655e-01 -1.55286429e-01  1.02966427e-01
 9.75000000e-03  3.00800000e+03   -1.68869174e-01 -1.60841655e-01  1.12431616e-01
 0.00000000e+00  3.00900000e+03   -2.59555360e-01  3.63949724e-01 -1.01388246e-01
 2.50000000e-04  3.00900000e+03   -2.90021927e-01  3.66767532e-01 -1.07413966e-01
 5.00000000e-04  3.00900000e+03   -3.12423865e-01  3.51025623e-01 -9.60478813e-02
 7.50000000e-04  3.00900000e+03   -3.04247218e-01  3.21902793e-01 -1.11752427e-01