TITLE = "pert vel"
VARIABLES = "r", "z", "u", "v", "w"
ZONE i=40, j=1000
 0.00000000e+00  4.00000000e+03    2.04443244e-01 -2.38181245e-01 -2.46484263e-01
 2.50000000e-04  4.00000000e+03    1.39906405e-01 -2.09312168e-01 -2.44399734e-01
 5.00000000e-04  4.00000000e+03    1.18700093e-01 -1.98926410e-01 -2.84585978e-01
 7.50000000e-04  4.00000000e+03    4.14056001e-02 -2.02522990e-01 -3.05651553e-01
 1.00000000e-03  4.00000000e+03    1.07675662e-03 -1.76180166e-01 -3.12090161e-01
 1.25000000e-03  4.00000000e+03   -2.32915591e-02 -2.01869498e-01 -3.03302990e-01
 1.50000000e-03  4.00000000e+03   -5.53569462e-02 -2.00749266e-01 -3.02098881e-01
 1.75000000e-03  4.00000000e+03   -1.16245303e-01 -2.07504860e-01 -2.95647592e-01
 2.00000000e-03  4.00000000e+03   -1.70603420e-01 -2.32297594e-01 -2.76918711e-01
 2.25000000e-03  4.00000000e+03   -2.06588017e-01 -2.11444471e-01 -2.57652730e-01
 2.50000000e-03  4.00000000e+03   -2.60706485e-01 -2.06518519e-01 -2.67975201e-01
 2.75000000e-03  4.00000000e+03   -2.82400629e-01 -2.12541094e-01 -2.49780707e-01
 3.00000000e-03  4.00000000e+03   -3.31344954e-01 -2.34012216e-01 -2.25727610e-01
 3.25000000e-03  4.00000000e+03   -3.58530977e-01 -2.43140065e-01 -1.95333220e-01
 3.50000000e-03  4.00000000e+03   -3.47968871e-01 -2.33015200e-01 -1.54479201e-01
 3.75000000e-03  4.00000000e+03   -3.48351275e-01 -2.18069702e-01 -1.01021820e-01
 4.00000000e-03  4.00000000e+03   -3.59979727e-01 -2.21382322e-01 -8.68042717e-02
 4.25000000e-03  4.00000000e+03   -3.73651980e-01 -2.38367956e-01 -5.49075240e-02
 4.50000000e-03  4.00000000e+03   -3.68370583e-01 -2.59923330e-01 -3.09929728e-02
 4.75000000e-03  4.00000000e+03   -3.84891116e-01 -2.76914439e-01 -7.27525566e-04
 5.00000000e-03  4.00000000e+03   -3.82487606e-01 -2.77692619e-01  3.99438792e-02
 5.25000000e-03  4.00000000e+03   -3.98786166e-01 -2.71795580e-01  7.99945887e-02
 5.50000000e-03  4.00000000e+03   -3.57401610e-01 -2.91338247e-01  7.91705003e-02
 5.75000000e-03  4.00000000e+03   -3.47401170e-01 -3.03677188e-01  1.06640019e-01
 6.00000000e-03  4.00000000e+03   -3.31993019e-01 -3.12538334e-01  1.36447912e-01
 6.25000000e-03  4.00000000e+03   -3.08969971e-01 -3.07274750e-01  1.55963768e-01
 6.50000000e-03  4.00000000e+03   -3.06937095e-01 -3.19820444e-01  1.97849173e-01
 6.75000000e-03  4.00000000e+03   -3.00813354e-01 -2.72803149e-01  2.46306618e-01
 7.00000000e-03  4.00000000e+03   -2.66634530e-01 -2.64995646e-01  2.65619081e-01
 7.25000000e-03  4.00000000e+03   -2.08497854e-01 -2.59606590e-01  3.04259391e-01
 7.50000000e-03  4.00000000e+03   -1.80452861e-01 -2.30013434e-01  3.26329828e-01
 7.75000000e-03  4.00000000e+03   -1.46548514e-01 -2.41929537e-01  3.35871114e-01
 8.00000000e-03  4.00000000e+03   -1.24754961e-01 -1.93321766e-01  3.23781811e-01
 8.25000000e-03  4.00000000e+03   -1.01236667e-01 -1.69997121e-01  3.07853690e-01
 8.50000000e-03  4.00000000e+03   -4.13828729e-02 -1.42402403e-01  3.01289601e-01
 8.75000000e-03  4.00000000e+03   -1.35730402e-02 -9.02537478e-02  2.72746634e-01
 9.00000000e-03  4.00000000e+03    1.76192337e-02 -7.58370062e-02  2.56553987e-01
 9.25000000e-03  4.00000000e+03    3.42850562e-02 -6.16381969e-02  2.26935899e-01
 9.50000000e-03  4.00000000e+03    4.15158125e-02  7.53798266e-03  2.22750061e-01
 9.75000000e-03  4.00000000e+03    8.17256423e-02  4.28050630e-02  1.89663565e-01
 0.00000000e+00  4.00100000e+03    2.23121761e-01 -2.09517614e-01 -2.34114977e-01
 2.50000000e-04  4.00100000e+03    1.60476591e-01 -1.82152780e-01 -2.30274754e-01
 5.00000000e-04  4.00100000e+03    1.40387543e-01 -1.70886024e-01 -2.68881780e-01
 7.50000000e-04  4.00100000e+03    6.46053821e-02 -1.75828865e-01 -2.88407710e-01
 1.00000000e-03  4.00100000e+03    2.58546628e-02 -1.50050563e-01 -2.93082712e-01
 1.25000000e-03  4.00100000e+03    2.86634146e-03 -1.76197698e-01 -2.83272301e-01
 1.50000000e-03  4.00100000e+03   -2.69823194e-02 -1.75539764e-01 -2.82086957e-01
 1.75000000e-03  4.00100000e+03   -8.93863447e-02 -1.81937625e-01 -2.75032736e-01
 2.00000000e-03  4.00100000e+03   -1.41392289e-01 -2.07577386e-01 -2.54588329e-01
 2.25000000e-03  4.00100000e+03   -1.76386924e-01 -1.86914914e-01 -2.35617440e-01
 2.50000000e-03  4.00100000e+03   -2.29251841e-01 -1.84367290e-01 -2.45029289e-01
 2.75000000e-03  4.00100000e+03   -2.51503177e-01 -1.91678471e-01 -2.27549706e-01
 3.00000000e-03  4.00100000e+03   -3.00365166e-01 -2.16496239e-01 -2.03628187e-01
 3.25000000e-03  4.00100000e+03   -3.27601977e-01 -2.28005818e-01 -1.74231430e-01
 3.50000000e-03  4.00100000e+03   -3.16712485e-01 -2.18523610e-01 -1.34649210e-01
 3.75000000e-03  4.00100000e+03   -3.16607520e-01 -2.06660745e-01 -8.19022098e-02
 4.00000000e-03  4.00100000e+03   -3.28703826e-01 -2.11852994e-01 -6.75088970e-02
 4.25000000e-03  4.00100000e+03   -3.44738587e-01 -2.31446925e-01 -3.53406660e-02
 4.50000000e-03  4.00100000e+03   -3.39053425e-01 -2.53498351e-01 -1.05658068e-02
 4.75000000e-03  4.00100000e+03   -3.56777649e-01 -2.72370732e-01  1.98853879e-02
 5.00000000e-03  4.00100000e+03   -3.55779833e-01 -2.73629038e-01  5.99213933e-02
 5.25000000e-03  4.00100000e+03   -3.72123207e-01 -2.68175265e-01  9.90274782e-02
 5.50000000e-03  4.00100000e+03   -3.31867880e-01 -2.89953168e-01  9.78036835e-02
 5.75000000e-03  4.00100000e+03   -3.22626347e-01 -3.02993469e-01  1.23798664e-01
 6.00000000e-03  4.00100000e+03   -3.07564549e-01 -3.12288465e-01  1.52102148e-01
 6.25000000e-03  4.00100000e+03   -2.86476205e-01 -3.08770281e-01  1.72551219e-01
 6.50000000e-03  4.00100000e+03   -2.85891519e-01 -3.23052948e-01  2.14244793e-01
 6.75000000e-03  4.00100000e+03   -2.80490047e-01 -2.77238872e-01  2.61827346e-01
 7.00000000e-03  4.00100000e+03   -2.48358062e-01 -2.69544749e-01  2.81036695e-01
 7.25000000e-03  4.00100000e+03   -1.93062594e-01 -2.64962579e-01  3.16872740e-01
 7.50000000e-03  4.00100000e+03   -1.66792297e-01 -2.35077521e-01  3.38814732e-01
 7.75000000e-03  4.00100000e+03   -1.33900819e-01 -2.47750515e-01  3.49043916e-01
 8.00000000e-03  4.00100000e+03   -1.14175290e-01 -2.00414454e-01  3.35238997e-01
 8.25000000e-03  4.00100000e+03   -9.13431701e-02 -1.77649121e-01  3.19361948e-01
 8.50000000e-03  4.00100000e+03   -3.29152857e-02 -1.48507438e-01  3.13935372e-01
 8.75000000e-03  4.00100000e+03   -5.16755799e-03 -9.57255441e-02  2.84953888e-01
 9.00000000e-03  4.00100000e+03    2.45904555e-02 -8.17751584e-02  2.67619083e-01
 9.25000000e-03  4.00100000e+03    3.95835194e-02 -6.64965645e-02  2.37602397e-01
 9.50000000e-03  4.00100000e+03    4.47565968e-02  1.84426268e-03  2.32669387e-01
 9.75000000e-03  4.00100000e+03    8.24840044e-02  3.82633044e-02  2.00105091e-01
 0.00000000e+00  4.00200000e+03    2.49537672e-01 -1.95559778e-01 -2.54538793e-01
 2.50000000e-04  4.00200000e+03    1.88798862e-01 -1.71226929e-01 -2.50078787e-01
 5.00000000e-04  4.00200000e+03    1.70630681e-01 -1.60785312e-01 -2.86902237e-01
 7.50000000e-04  4.00200000e+03    9.63685398e-02 -1.68373488e-01 -3.05829692e-01
 1.00000000e-03  4.00200000e+03    6.04938841e-02 -1.43942875e-01 -3.09813912e-01
 1.25000000e-03  4.00200000e+03    3.78601778e-02 -1.71031983e-01 -2.96483538e-01
 1.50000000e-03  4.00200000e+03    9.67438080e-03 -1.72764212e-01 -2.94683779e-01
 1.75000000e-03  4.00200000e+03   -5.31570659e-02 -1.81082942e-01 -2.86538395e-01
 2.00000000e-03  4.00200000e+03   -1.04593884e-01 -2.09512606e-01 -2.64695073e-01
 2.25000000e-03  4.00200000e+03   -1.38840410e-01 -1.90946790e-01 -2.43528587e-01
 2.50000000e-03  4.00200000e+03   -1.90859069e-01 -1.91154476e-01 -2.53020705e-01
 2.75000000e-03  4.00200000e+03   -2.14769132e-01 -2.00550696e-01 -2.33561583e-01
 3.00000000e-03  4.00200000e+03   -2.65543336e-01 -2.27342497e-01 -2.09252586e-01
 3.25000000e-03  4.00200000e+03   -2.93688109e-01 -2.40866894e-01 -1.78657984e-01
 3.50000000e-03  4.00200000e+03   -2.82719358e-01 -2.34362495e-01 -1.37977991e-01
 3.75000000e-03  4.00200000e+03   -2.84439649e-01 -2.25254181e-01 -8.54861310e-02
 4.00000000e-03  4.00200000e+03   -2.98765539e-01 -2.33252923e-01 -7.03341464e-02
 4.25000000e-03  4.00200000e+03   -3.16556549e-01 -2.55901230e-01 -3.63607731e-02
 4.50000000e-03  4.00200000e+03   -3.11917677e-01 -2.80230269e-01 -1.12519551e-02
 4.75000000e-03  4.00200000e+03   -3.31750738e-01 -3.01170754e-01  1.91944976e-02
 5.00000000e-03  4.00200000e+03   -3.32001590e-01 -3.03893405e-01  5.77871434e-02
 5.25000000e-03  4.00200000e+03   -3.48908334e-01 -3.01527117e-01  9.83884625e-02
 5.50000000e-03  4.00200000e+03   -3.12498815e-01 -3.24667368e-01  9.78684104e-02
 5.75000000e-03  4.00200000e+03   -3.05774201e-01 -3.38592775e-01  1.21494079e-01
 6.00000000e-03  4.00200000e+03   -2.91604082e-01 -3.47694008e-01  1.50534465e-01
 6.25000000e-03  4.00200000e+03   -2.73302276e-01 -3.44347879e-01  1.70902452e-01
 6.50000000e-03  4.00200000e+03   -2.74278400e-01 -3.60521160e-01  2.13088569e-01
 6.75000000e-03  4.00200000e+03   -2.69323052e-01 -3.15296336e-01  2.58963991e-01
 7.00000000e-03  4.00200000e+03   -2.40076010e-01 -3.07322624e-01  2.77963192e-01
 7.25000000e-03  4.00200000e+03   -1.85464937e-01 -3.02034987e-01  3.12983072e-01
 7.50000000e-03  4.00200000e+03   -1.61722585e-01 -2.71271016e-01  3.34983218e-01
 7.75000000e-03  4.00200000e+03   -1.31036463e-01 -2.82412566e-01  3.47082661e-01
 8.00000000e-03  4.00200000e+03   -1.12152379e-01 -2.33973249e-01  3.33357509e-01
 8.25000000e-03  4.00200000e+03   -8.92559522e-02 -2.09561938e-01  3.16632242e-01
 8.50000000e-03  4.00200000e+03   -3.05734116e-02 -1.78789055e-01  3.12220993e-01
 8.75000000e-03  4.00200000e+03   -1.97043532e-03 -1.24532756e-01  2.84017972e-01
 9.00000000e-03  4.00200000e+03    2.63452969e-02 -1.09383599e-01  2.66636653e-01
 9.25000000e-03  4.00200000e+03    3.96073634e-02 -9.24271438e-02  2.36361279e-01
 9.50000000e-03  4.00200000e+03    4.42979719e-02 -2.20508132e-02  2.31709710e-01
 9.75000000e-03  4.00200000e+03    8.17455742e-02  1.62540667e-02  2.00927745e-01
 0.00000000e+00  4.00300000e+03    2.60609648e-01 -2.05766960e-01 -2.71569580e-01
 2.50000000e-04  4.00300000e+03    1.99410213e-01 -1.83297261e-01 -2.65605540e-01
 5.00000000e-04  4.00300000e+03    1.81636452e-01 -1.73498933e-01 -3.00187995e-01
 7.50000000e-04  4.00300000e+03    1.07824748e-01 -1.82590785e-01 -3.16769655e-01
 1.00000000e-03  4.00300000e+03    7.32630001e-02 -1.58661735e-01 -3.17066644e-01
 1.25000000e-03  4.00300000e+03    4.95283656e-02 -1.86656462e-01 -3.01270206e-01
 1.50000000e-03  4.00300000e+03    2.20711788e-02 -1.88980017e-01 -2.98444573e-01
 1.75000000e-03  4.00300000e+03   -4.22439498e-02 -1.98574993e-01 -2.88829093e-01
 2.00000000e-03  4.00300000e+03   -9.42587454e-02 -2.27468453e-01 -2.64451891e-01
 2.25000000e-03  4.00300000e+03   -1.28664039e-01 -2.08047731e-01 -2.40566146e-01
 2.50000000e-03  4.00300000e+03   -1.80711538e-01 -2.10132487e-01 -2.49331578e-01
 2.75000000e-03  4.00300000e+03   -2.05320136e-01 -2.20581809e-01 -2.28737775e-01
 3.00000000e-03  4.00300000e+03   -2.58809003e-01 -2.47289728e-01 -2.02374978e-01
 3.25000000e-03  4.00300000e+03   -2.88510419e-01 -2.59102161e-01 -1.69821327e-01
 3.50000000e-03  4.00300000e+03   -2.78826965e-01 -2.52056320e-01 -1.27588112e-01
 3.75000000e-03  4.00300000e+03   -2.81653510e-01 -2.42468309e-01 -7.38093358e-02
 4.00000000e-03  4.00300000e+03   -2.97335271e-01 -2.50991830e-01 -5.78509632e-02
 4.25000000e-03  4.00300000e+03   -3.17100677e-01 -2.71979924e-01 -2.16204637e-02
 4.50000000e-03  4.00300000e+03   -3.13933871e-01 -2.96371126e-01  3.87326600e-03
 4.75000000e-03  4.00300000e+03   -3.34940308e-01 -3.15691355e-01  3.36306578e-02
 5.00000000e-03  4.00300000e+03   -3.35671216e-01 -3.17907692e-01  7.27029652e-02
 5.25000000e-03  4.00300000e+03   -3.53883746e-01 -3.15428425e-01  1.12213506e-01
 5.50000000e-03  4.00300000e+03   -3.19497478e-01 -3.37908773e-01  1.12087143e-01
 5.75000000e-03  4.00300000e+03   -3.14174316e-01 -3.50259081e-01  1.34899013e-01
 6.00000000e-03  4.00300000e+03   -3.01769473e-01 -3.57890842e-01  1.63395584e-01
 6.25000000e-03  4.00300000e+03   -2.86617282e-01 -3.53498409e-01  1.83961700e-01
 6.50000000e-03  4.00300000e+03   -2.89722794e-01 -3.69381542e-01  2.24233376e-01
 6.75000000e-03  4.00300000e+03   -2.84962453e-01 -3.23033191e-01  2.68857361e-01
 7.00000000e-03  4.00300000e+03   -2.59435910e-01 -3.13896652e-01  2.89527353e-01
 7.25000000e-03  4.00300000e+03   -2.05545558e-01 -3.06456112e-01  3.21845488e-01
 7.50000000e-03  4.00300000e+03   -1.81898283e-01 -2.75622258e-01  3.44875620e-01
 7.75000000e-03  4.00300000e+03   -1.51118791e-01 -2.87999576e-01  3.55585335e-01
 8.00000000e-03  4.00300000e+03   -1.33223077e-01 -2.38764514e-01  3.41382723e-01
 8.25000000e-03  4.00300000e+03   -1.10650438e-01 -2.15056147e-01  3.22368974e-01
 8.50000000e-03  4.00300000e+03   -5.27516315e-02 -1.85145842e-01  3.18576328e-01
 8.75000000e-03  4.00300000e+03   -2.46855067e-02 -1.32591648e-01  2.89948819e-01
 9.00000000e-03  4.00300000e+03    3.41198348e-03 -1.17362129e-01  2.69846113e-01
 9.25000000e-03  4.00300000e+03    1.71462094e-02 -1.00501079e-01  2.38558365e-01
 9.50000000e-03  4.00300000e+03    2.29347353e-02 -3.19178381e-02  2.33315034e-01
 9.75000000e-03  4.00300000e+03    6.11572664e-02  5.72276990e-03  2.01728425e-01
 0.00000000e+00  4.00400000e+03    2.71415162e-01 -2.20621272e-01 -2.90524770e-01
 2.50000000e-04  4.00400000e+03    2.10495772e-01 -1.98638220e-01 -2.84542483e-01
 5.00000000e-04  4.00400000e+03    1.92753146e-01 -1.88251073e-01 -3.17929804e-01
 7.50000000e-04  4.00400000e+03    1.20336755e-01 -1.97098028e-01 -3.32917797e-01
 1.00000000e-03  4.00400000e+03    8.58845432e-02 -1.70731393e-01 -3.31565340e-01
 1.25000000e-03  4.00400000e+03    6.12096328e-02 -1.97025220e-01 -3.13038176e-01
 1.50000000e-03  4.00400000e+03    3.41309306e-02 -1.98947512e-01 -3.09959259e-01
 1.75000000e-03  4.00400000e+03   -3.18274004e-02 -2.06757676e-01 -2.99598810e-01
 2.00000000e-03  4.00400000e+03   -8.33312285e-02 -2.35159001e-01 -2.72973199e-01
 2.25000000e-03  4.00400000e+03   -1.18322154e-01 -2.14313457e-01 -2.46947642e-01
 2.50000000e-03  4.00400000e+03   -1.71195603e-01 -2.15719825e-01 -2.55108856e-01
 2.75000000e-03  4.00400000e+03   -1.97839236e-01 -2.25319819e-01 -2.34212588e-01
 3.00000000e-03  4.00400000e+03   -2.53465443e-01 -2.51930209e-01 -2.06800222e-01
 3.25000000e-03  4.00400000e+03   -2.83151904e-01 -2.62994697e-01 -1.74305983e-01
 3.50000000e-03  4.00400000e+03   -2.74644170e-01 -2.55086659e-01 -1.32189108e-01
 3.75000000e-03  4.00400000e+03   -2.78053330e-01 -2.45170722e-01 -7.75278089e-02
 4.00000000e-03  4.00400000e+03   -2.94675428e-01 -2.55748736e-01 -6.12529785e-02
 4.25000000e-03  4.00400000e+03   -3.15621289e-01 -2.74867149e-01 -2.38593494e-02
 4.50000000e-03  4.00400000e+03   -3.12572806e-01 -2.97913938e-01  1.71730004e-03
 4.75000000e-03  4.00400000e+03   -3.36283837e-01 -3.16215314e-01  3.18232303e-02
 5.00000000e-03  4.00400000e+03   -3.36416696e-01 -3.18277620e-01  7.05141834e-02
 5.25000000e-03  4.00400000e+03   -3.54595133e-01 -3.16006382e-01  1.10025334e-01
 5.50000000e-03  4.00400000e+03   -3.21197673e-01 -3.40553302e-01  1.09612949e-01
 5.75000000e-03  4.00400000e+03   -3.16216420e-01 -3.53046161e-01  1.31947462e-01
 6.00000000e-03  4.00400000e+03   -3.03380710e-01 -3.61780106e-01  1.60900610e-01
 6.25000000e-03  4.00400000e+03   -2.89567968e-01 -3.56864361e-01  1.81401272e-01
 6.50000000e-03  4.00400000e+03   -2.93721290e-01 -3.74273518e-01  2.20268490e-01
 6.75000000e-03  4.00400000e+03   -2.89160448e-01 -3.29251578e-01  2.64256824e-01
 7.00000000e-03  4.00400000e+03   -2.65288061e-01 -3.21459357e-01  2.85945330e-01
 7.25000000e-03  4.00400000e+03   -2.12165552e-01 -3.14015981e-01  3.17465058e-01
 7.50000000e-03  4.00400000e+03   -1.90436567e-01 -2.84365240e-01  3.40276084e-01
 7.75000000e-03  4.00400000e+03   -1.61037197e-01 -2.97839478e-01  3.50532032e-01
 8.00000000e-03  4.00400000e+03   -1.42982612e-01 -2.50224191e-01  3.35747907e-01
 8.25000000e-03  4.00400000e+03   -1.19298688e-01 -2.27045983e-01  3.16202734e-01
 8.50000000e-03  4.00400000e+03   -6.20409179e-02 -1.97346694e-01  3.13018211e-01
 8.75000000e-03  4.00400000e+03   -3.43811789e-02 -1.45370701e-01  2.83065322e-01
 9.00000000e-03  4.00400000e+03   -7.14770954e-03 -1.32279296e-01  2.62294136e-01
 9.25000000e-03  4.00400000e+03    6.65540624e-03 -1.17331036e-01  2.30359467e-01
 9.50000000e-03  4.00400000e+03    1.42632334e-02 -5.05727796e-02  2.24709271e-01
 9.75000000e-03  4.00400000e+03    5.14109226e-02 -1.41993255e-02  1.93569896e-01
 0.00000000e+00  4.00500000e+03    2.81805493e-01 -2.08133173e-01 -2.98766968e-01
 2.50000000e-04  4.00500000e+03    2.22990585e-01 -1.87536463e-01 -2.91430121e-01
 5.00000000e-04  4.00500000e+03    2.07115544e-01 -1.77566320e-01 -3.22750038e-01
 7.50000000e-04  4.00500000e+03    1.38488477e-01 -1.88353256e-01 -3.37064975e-01
 1.00000000e-03  4.00500000e+03    1.06637843e-01 -1.63190791e-01 -3.32176058e-01
 1.25000000e-03  4.00500000e+03    8.26327461e-02 -1.88927080e-01 -3.11200389e-01
 1.50000000e-03  4.00500000e+03    5.92460504e-02 -1.89873896e-01 -3.07228665e-01
 1.75000000e-03  4.00500000e+03   -5.01578052e-03 -1.98276372e-01 -2.95739948e-01
 2.00000000e-03  4.00500000e+03   -5.37144019e-02 -2.26657456e-01 -2.66452992e-01
 2.25000000e-03  4.00500000e+03   -8.85121683e-02 -2.05954117e-01 -2.38674156e-01
 2.50000000e-03  4.00500000e+03   -1.39799030e-01 -2.07754790e-01 -2.47079888e-01
 2.75000000e-03  4.00500000e+03   -1.64179863e-01 -2.17721521e-01 -2.26493378e-01
 3.00000000e-03  4.00500000e+03   -2.18681300e-01 -2.45878427e-01 -1.98106737e-01
 3.25000000e-03  4.00500000e+03   -2.47501543e-01 -2.58049188e-01 -1.65155013e-01
 3.50000000e-03  4.00500000e+03   -2.37085410e-01 -2.51357574e-01 -1.23514616e-01
 3.75000000e-03  4.00500000e+03   -2.39311063e-01 -2.42408991e-01 -6.99650251e-02
 4.00000000e-03  4.00500000e+03   -2.54698722e-01 -2.54771232e-01 -5.48336587e-02
 4.25000000e-03  4.00500000e+03   -2.75239951e-01 -2.74987330e-01 -1.75927809e-02
 4.50000000e-03  4.00500000e+03   -2.70485971e-01 -2.98124910e-01  7.29160419e-03
 4.75000000e-03  4.00500000e+03   -2.94368996e-01 -3.18405987e-01  3.65656528e-02
 5.00000000e-03  4.00500000e+03   -2.95274809e-01 -3.21497240e-01  7.39074404e-02
 5.25000000e-03  4.00500000e+03   -3.12344257e-01 -3.20233773e-01  1.11406267e-01
 5.50000000e-03  4.00500000e+03   -2.80197867e-01 -3.46297886e-01  1.10412506e-01
 5.75000000e-03  4.00500000e+03   -2.76054314e-01 -3.59986672e-01  1.29688090e-01
 6.00000000e-03  4.00500000e+03   -2.64856063e-01 -3.69787293e-01  1.58045655e-01
 6.25000000e-03  4.00500000e+03   -2.52588131e-01 -3.64934140e-01  1.77798542e-01
 6.50000000e-03  4.00500000e+03   -2.57374715e-01 -3.84984595e-01  2.15813667e-01
 6.75000000e-03  4.00500000e+03   -2.53595964e-01 -3.41637783e-01  2.57630127e-01
 7.00000000e-03  4.00500000e+03   -2.32257365e-01 -3.34687235e-01  2.78802778e-01
 7.25000000e-03  4.00500000e+03   -1.80330999e-01 -3.29120435e-01  3.08997191e-01
 7.50000000e-03  4.00500000e+03   -1.60067494e-01 -3.00011395e-01  3.31124275e-01
 7.75000000e-03  4.00500000e+03   -1.33118660e-01 -3.15135211e-01  3.39848902e-01
 8.00000000e-03  4.00500000e+03   -1.15681426e-01 -2.69351798e-01  3.25637053e-01
 8.25000000e-03  4.00500000e+03   -9.30749603e-02 -2.47655006e-01  3.05897683e-01
 8.50000000e-03  4.00500000e+03   -3.90478973e-02 -2.17860718e-01  3.03138438e-01
 8.75000000e-03  4.00500000e+03   -1.29074541e-02 -1.68191599e-01  2.72344878e-01
 9.00000000e-03  4.00500000e+03    1.27441486e-02 -1.55355910e-01  2.51502316e-01
 9.25000000e-03  4.00500000e+03    2.44884022e-02 -1.41299277e-01  2.19566764e-01
 9.50000000e-03  4.00500000e+03    3.16983211e-02 -7.53783060e-02  2.14506134e-01
 9.75000000e-03  4.00500000e+03    6.68993537e-02 -3.96389260e-02  1.84795053e-01
 0.00000000e+00  4.00600000e+03    2.88102421e-01 -2.06968548e-01 -3.15003140e-01
 2.50000000e-04  4.00600000e+03    2.30023865e-01 -1.88798402e-01 -3.06325147e-01
 5.00000000e-04  4.00600000e+03    2.14695434e-01 -1.77703407e-01 -3.36184690e-01
 7.50000000e-04  4.00600000e+03    1.49040939e-01 -1.88339371e-01 -3.48803462e-01
 1.00000000e-03  4.00600000e+03    1.18667926e-01 -1.62170755e-01 -3.41675445e-01
 1.25000000e-03  4.00600000e+03    9.49539977e-02 -1.87528026e-01 -3.19014348e-01
 1.50000000e-03  4.00600000e+03    7.41476350e-02 -1.88268024e-01 -3.14452862e-01
 1.75000000e-03  4.00600000e+03    1.02934768e-02 -1.97585803e-01 -3.02352470e-01
 2.00000000e-03  4.00600000e+03   -3.63260729e-02 -2.24337974e-01 -2.71726627e-01
 2.25000000e-03  4.00600000e+03   -7.00505388e-02 -2.03410694e-01 -2.43102954e-01
 2.50000000e-03  4.00600000e+03   -1.20444549e-01 -2.06548151e-01 -2.51554018e-01
 2.75000000e-03  4.00600000e+03   -1.43941992e-01 -2.15859588e-01 -2.31497939e-01
 3.00000000e-03  4.00600000e+03   -1.98690641e-01 -2.44873582e-01 -2.01647449e-01
 3.25000000e-03  4.00600000e+03   -2.27094542e-01 -2.57237054e-01 -1.69241135e-01
 3.50000000e-03  4.00600000e+03   -2.14821004e-01 -2.50090351e-01 -1.27388120e-01
 3.75000000e-03  4.00600000e+03   -2.15005300e-01 -2.41971391e-01 -7.29423581e-02
 4.00000000e-03  4.00600000e+03   -2.28568838e-01 -2.54728934e-01 -5.72807854e-02
 4.25000000e-03  4.00600000e+03   -2.48974532e-01 -2.74709785e-01 -1.93460874e-02
 4.50000000e-03  4.00600000e+03   -2.43754613e-01 -2.97967562e-01  7.03818373e-03
 4.75000000e-03  4.00600000e+03   -2.67943212e-01 -3.17961206e-01  3.70598530e-02
 5.00000000e-03  4.00600000e+03   -2.69022347e-01 -3.20047298e-01  7.51149053e-02
 5.25000000e-03  4.00600000e+03   -2.85433073e-01 -3.17921802e-01  1.12637118e-01
 5.50000000e-03  4.00600000e+03   -2.53051476e-01 -3.44919683e-01  1.13091417e-01
 5.75000000e-03  4.00600000e+03   -2.47746716e-01 -3.58517031e-01  1.30608075e-01
 6.00000000e-03  4.00600000e+03   -2.36707433e-01 -3.66663997e-01  1.58180404e-01
 6.25000000e-03  4.00600000e+03   -2.26345848e-01 -3.60397933e-01  1.78627228e-01
 6.50000000e-03  4.00600000e+03   -2.32095612e-01 -3.80775008e-01  2.17590857e-01
 6.75000000e-03  4.00600000e+03   -2.28104281e-01 -3.36932898e-01  2.59309299e-01
 7.00000000e-03  4.00600000e+03   -2.07517664e-01 -3.29276615e-01  2.80963648e-01
 7.25000000e-03  4.00600000e+03   -1.57788301e-01 -3.22924263e-01  3.11234142e-01
 7.50000000e-03  4.00600000e+03   -1.38539808e-01 -2.94233131e-01  3.34160258e-01
 7.75000000e-03  4.00600000e+03   -1.13641779e-01 -3.09338594e-01  3.42495047e-01
 8.00000000e-03  4.00600000e+03   -9.65309542e-02 -2.62860047e-01  3.29117690e-01
 8.25000000e-03  4.00600000e+03   -7.40449081e-02 -2.40015042e-01  3.10171027e-01
 8.50000000e-03  4.00600000e+03   -2.04327145e-02 -2.09782782e-01  3.08711417e-01
 8.75000000e-03  4.00600000e+03    4.89240683e-03 -1.60557474e-01  2.77041150e-01
 9.00000000e-03  4.00600000e+03    2.82468450e-02 -1.48459230e-01  2.55961176e-01
 9.25000000e-03  4.00600000e+03    3.93486153e-02 -1.34688223e-01  2.22919381e-01
 9.50000000e-03  4.00600000e+03    4.61085011e-02 -6.92839382e-02  2.17973858e-01
 9.75000000e-03  4.00600000e+03    7.99832847e-02 -3.56746733e-02  1.87452063e-01
 0.00000000e+00  4.00700000e+03    2.89150177e-01 -1.89335534e-01 -3.14347214e-01
 2.50000000e-04  4.00700000e+03    2.32997796e-01 -1.71313851e-01 -3.04134137e-01
 5.00000000e-04  4.00700000e+03    2.20165146e-01 -1.60577561e-01 -3.33397860e-01
 7.50000000e-04  4.00700000e+03    1.57800528e-01 -1.71636997e-01 -3.44711559e-01
 1.00000000e-03  4.00700000e+03    1.30368368e-01 -1.45252322e-01 -3.34849903e-01
 1.25000000e-03  4.00700000e+03    1.06954870e-01 -1.70424266e-01 -3.11093602e-01
 1.50000000e-03  4.00700000e+03    8.79297697e-02 -1.71714260e-01 -3.06603076e-01
 1.75000000e-03  4.00700000e+03    2.63279546e-02 -1.80691858e-01 -2.92823460e-01
 2.00000000e-03  4.00700000e+03   -1.76536464e-02 -2.07269362e-01 -2.61198118e-01
 2.25000000e-03  4.00700000e+03   -4.98561108e-02 -1.87840008e-01 -2.30818651e-01
 2.50000000e-03  4.00700000e+03   -9.85316753e-02 -1.93204460e-01 -2.39257359e-01
 2.75000000e-03  4.00700000e+03   -1.21150983e-01 -2.02289876e-01 -2.19757453e-01
 3.00000000e-03  4.00700000e+03   -1.75807900e-01 -2.31137424e-01 -1.90314233e-01
 3.25000000e-03  4.00700000e+03   -2.03882461e-01 -2.45276495e-01 -1.58292002e-01
 3.50000000e-03  4.00700000e+03   -1.92491352e-01 -2.38270307e-01 -1.17111299e-01
 3.75000000e-03  4.00700000e+03   -1.94095793e-01 -2.32460457e-01 -6.32282494e-02
 4.00000000e-03  4.00700000e+03   -2.07009262e-01 -2.45997508e-01 -4.74704243e-02
 4.25000000e-03  4.00700000e+03   -2.29353443e-01 -2.66274907e-01 -9.50600625e-03
 4.50000000e-03  4.00700000e+03   -2.25073090e-01 -2.89056614e-01  1.70474940e-02
 4.75000000e-03  4.00700000e+03   -2.50203421e-01 -3.10121596e-01  4.63381315e-02
 5.00000000e-03  4.00700000e+03   -2.53204552e-01 -3.12186364e-01  8.29277424e-02
 5.25000000e-03  4.00700000e+03   -2.70525367e-01 -3.10430010e-01  1.20337056e-01
 5.50000000e-03  4.00700000e+03   -2.39754960e-01 -3.39483187e-01  1.20747090e-01
 5.75000000e-03  4.00700000e+03   -2.36872123e-01 -3.52327747e-01  1.36752055e-01
 6.00000000e-03  4.00700000e+03   -2.28244503e-01 -3.61009686e-01  1.64089745e-01
 6.25000000e-03  4.00700000e+03   -2.20114582e-01 -3.55029451e-01  1.84109498e-01
 6.50000000e-03  4.00700000e+03   -2.27300186e-01 -3.76787670e-01  2.22257636e-01
 6.75000000e-03  4.00700000e+03   -2.23692188e-01 -3.34525436e-01  2.63656545e-01
 7.00000000e-03  4.00700000e+03   -2.05256221e-01 -3.28662793e-01  2.84498563e-01
 7.25000000e-03  4.00700000e+03   -1.56991007e-01 -3.22299338e-01  3.12774514e-01
 7.50000000e-03  4.00700000e+03   -1.39782784e-01 -2.95359215e-01  3.34543179e-01
 7.75000000e-03  4.00700000e+03   -1.17642172e-01 -3.11638140e-01  3.42893138e-01
 8.00000000e-03  4.00700000e+03   -1.01480243e-01 -2.67080933e-01  3.28609675e-01
 8.25000000e-03  4.00700000e+03   -7.94852447e-02 -2.44879744e-01  3.09318831e-01
 8.50000000e-03  4.00700000e+03   -2.77964595e-02 -2.13996507e-01  3.08334691e-01
 8.75000000e-03  4.00700000e+03   -3.49244331e-03 -1.66466026e-01  2.77064205e-01
 9.00000000e-03  4.00700000e+03    2.00430872e-02 -1.55989323e-01  2.54947523e-01
 9.25000000e-03  4.00700000e+03    3.00205317e-02 -1.43266997e-01  2.21075599e-01
 9.50000000e-03  4.00700000e+03    3.75880997e-02 -7.90526059e-02  2.15882697e-01
 9.75000000e-03  4.00700000e+03    7.21447470e-02 -4.64540970e-02  1.84712141e-01
 0.00000000e+00  4.00800000e+03    2.87735108e-01 -1.68088416e-01 -3.31737457e-01
 2.50000000e-04  4.00800000e+03    2.33059090e-01 -1.51108768e-01 -3.20682198e-01
 5.00000000e-04  4.00800000e+03    2.20650312e-01 -1.42344068e-01 -3.49833855e-01
 7.50000000e-04  4.00800000e+03    1.59629623e-01 -1.54116262e-01 -3.59941120e-01
 1.00000000e-03  4.00800000e+03    1.33339499e-01 -1.29101750e-01 -3.48513330e-01
 1.25000000e-03  4.00800000e+03    1.09328039e-01 -1.55816087e-01 -3.23235422e-01
 1.50000000e-03  4.00800000e+03    9.23611267e-02 -1.58233438e-01 -3.17706580e-01
 1.75000000e-03  4.00800000e+03    3.20667429e-02 -1.69155451e-01 -3.03301004e-01
 2.00000000e-03  4.00800000e+03   -1.06674152e-02 -1.96334724e-01 -2.69385772e-01
 2.25000000e-03  4.00800000e+03   -4.23386434e-02 -1.79856936e-01 -2.37383854e-01
 2.50000000e-03  4.00800000e+03   -8.84564861e-02 -1.87181393e-01 -2.44509543e-01
 2.75000000e-03  4.00800000e+03   -1.09128733e-01 -1.98331073e-01 -2.24652555e-01
 3.00000000e-03  4.00800000e+03   -1.61525168e-01 -2.29923656e-01 -1.96747714e-01
 3.25000000e-03  4.00800000e+03   -1.86955506e-01 -2.46836214e-01 -1.63938890e-01
 3.50000000e-03  4.00800000e+03   -1.75894740e-01 -2.39991287e-01 -1.22407991e-01
 3.75000000e-03  4.00800000e+03   -1.76057088e-01 -2.36037005e-01 -6.86885034e-02
 4.00000000e-03  4.00800000e+03   -1.86873847e-01 -2.52010884e-01 -5.20769704e-02
 4.25000000e-03  4.00800000e+03   -2.09121195e-01 -2.73617016e-01 -1.31477249e-02
 4.50000000e-03  4.00800000e+03   -2.03820542e-01 -2.97591259e-01  1.48331269e-02
 4.75000000e-03  4.00800000e+03   -2.27819356e-01 -3.20167817e-01  4.37171313e-02
 5.00000000e-03  4.00800000e+03   -2.29649392e-01 -3.22845327e-01  8.02904922e-02
 5.25000000e-03  4.00800000e+03   -2.45250545e-01 -3.23876179e-01  1.17750644e-01
 5.50000000e-03  4.00800000e+03   -2.14156257e-01 -3.55704559e-01  1.18402573e-01
 5.75000000e-03  4.00800000e+03   -2.11231477e-01 -3.68600789e-01  1.33348767e-01
 6.00000000e-03  4.00800000e+03   -2.02151935e-01 -3.78837542e-01  1.61803549e-01
 6.25000000e-03  4.00800000e+03   -1.96057108e-01 -3.73441244e-01  1.82671020e-01
 6.50000000e-03  4.00800000e+03   -2.05073140e-01 -3.97893568e-01  2.20343006e-01
 6.75000000e-03  4.00800000e+03   -2.02333096e-01 -3.57690644e-01  2.60094977e-01
 7.00000000e-03  4.00800000e+03   -1.85323286e-01 -3.52408371e-01  2.80440653e-01
 7.25000000e-03  4.00800000e+03   -1.37561880e-01 -3.46970125e-01  3.05412790e-01
 7.50000000e-03  4.00800000e+03   -1.21335541e-01 -3.21222665e-01  3.28287972e-01
 7.75000000e-03  4.00800000e+03   -1.01011625e-01 -3.38680677e-01  3.35417330e-01
 8.00000000e-03  4.00800000e+03   -8.58810970e-02 -2.94317223e-01  3.20170178e-01
 8.25000000e-03  4.00800000e+03   -6.52420897e-02 -2.72397893e-01  3.00143320e-01
 8.50000000e-03  4.00800000e+03   -1.50368307e-02 -2.41834618e-01  2.99646928e-01
 8.75000000e-03  4.00800000e+03    8.08093337e-03 -1.95688944e-01  2.67712733e-01
 9.00000000e-03  4.00800000e+03    3.02791680e-02 -1.85401722e-01  2.44502455e-01
 9.25000000e-03  4.00800000e+03    3.82094834e-02 -1.71516142e-01  2.09683941e-01
 9.50000000e-03  4.00800000e+03    4.36604370e-02 -1.07337061e-01  2.04415345e-01
 9.75000000e-03  4.00800000e+03    7.58184432e-02 -7.50424139e-02  1.74037682e-01
 0.00000000e+00  4.00900000e+03    3.00159734e-01 -1.61287369e-01 -3.38785742e-01
 2.50000000e-04  4.00900000e+03    2.47294319e-01 -1.45256338e-01 -3.27071726e-01
 5.00000000e-04  4.00900000e+03    2.36262426e-01 -1.37134258e-01 -3.54436394e-01
 7.50000000e-04  4.00900000e+03    1.77287717e-01 -1.48995465e-01 -3.64481450e-01