TITLE = "pert vel"
VARIABLES = "r", "z", "u", "v", "w"
ZONE i=40, j=1000
 0.00000000e+00  0.00000000e+00    1.91729038e-02 -4.65236172e-02  1.51591974e-01
 2.50000000e-04  0.00000000e+00    4.70474059e-02 -3.45178517e-02  1.39647881e-01
 5.00000000e-04  0.00000000e+00    4.67675018e-02 -4.15069062e-02  1.34467392e-01
 7.50000000e-04  0.00000000e+00    4.56051861e-02 -5.36913533e-02  1.24623924e-01
 1.00000000e-03  0.00000000e+00    4.57830552e-02 -6.04609133e-02  1.19021458e-01
 1.25000000e-03  0.00000000e+00    1.23306053e-02 -8.29593449e-02  1.05611985e-01
 1.50000000e-03  0.00000000e+00    4.61168023e-02 -5.36829157e-02  1.21484909e-01
 1.75000000e-03  0.00000000e+00    5.67489872e-02 -5.90060422e-02  1.06356601e-01
 2.00000000e-03  0.00000000e+00    3.15854150e-02 -1.05058167e-01  1.02299490e-01
 2.25000000e-03  0.00000000e+00    2.02800686e-02 -8.75650326e-02  2.59870836e-02
 2.50000000e-03  0.00000000e+00    4.65174421e-02 -7.66696093e-02  1.82833926e-02
 2.75000000e-03  0.00000000e+00    3.33706367e-02 -1.07766603e-01  2.25770022e-02
 3.00000000e-03  0.00000000e+00    1.40725581e-02 -1.31147166e-01 -2.35242853e-02
 3.25000000e-03  0.00000000e+00   -4.34687473e-03 -9.95448879e-02 -4.40841097e-02
 3.50000000e-03  0.00000000e+00   -1.57832813e-02 -1.35800929e-01 -8.25710169e-02
 3.75000000e-03  0.00000000e+00   -2.96787189e-02 -1.45054960e-01 -1.11973401e-01
 4.00000000e-03  0.00000000e+00   -4.83016259e-02 -1.57875902e-01 -1.14455972e-01
 4.25000000e-03  0.00000000e+00   -4.91734243e-02 -1.45828589e-01 -1.08315668e-01
 4.50000000e-03  0.00000000e+00   -7.23932891e-02 -1.85226582e-01 -1.42444091e-01
 4.75000000e-03  0.00000000e+00   -6.79744363e-02 -1.99531073e-01 -1.68199956e-01
 5.00000000e-03  0.00000000e+00   -8.26913696e-02 -2.24701640e-01 -2.21130611e-01
 5.25000000e-03  0.00000000e+00   -1.05757253e-01 -2.35583075e-01 -2.78591421e-01
 5.50000000e-03  0.00000000e+00   -1.05170361e-01 -2.63763020e-01 -3.07932634e-01
 5.75000000e-03  0.00000000e+00   -9.39315116e-02 -2.68703300e-01 -3.55508262e-01
 6.00000000e-03  0.00000000e+00   -1.07030403e-01 -2.95251680e-01 -4.01342489e-01
 6.25000000e-03  0.00000000e+00   -1.39753947e-01 -3.02239373e-01 -4.01420144e-01
 6.50000000e-03  0.00000000e+00   -1.74768169e-01 -2.76744705e-01 -4.39319787e-01
 6.75000000e-03  0.00000000e+00   -1.62845345e-01 -2.90342639e-01 -4.70348743e-01
 7.00000000e-03  0.00000000e+00   -1.76381266e-01 -2.93459359e-01 -4.99740125e-01
 7.25000000e-03  0.00000000e+00   -2.03076628e-01 -3.38855649e-01 -4.97419045e-01
 7.50000000e-03  0.00000000e+00   -2.21627612e-01 -3.58605298e-01 -5.32767956e-01
 7.75000000e-03  0.00000000e+00   -2.48331214e-01 -3.72430138e-01 -5.58184692e-01
 8.00000000e-03  0.00000000e+00   -2.54569828e-01 -3.98478536e-01 -5.66297581e-01
 8.25000000e-03  0.00000000e+00   -2.89432448e-01 -3.70351869e-01 -5.43851074e-01
 8.50000000e-03  0.00000000e+00   -3.29903206e-01 -3.70899648e-01 -5.36144187e-01
 8.75000000e-03  0.00000000e+00   -3.50647544e-01 -3.82937877e-01 -5.41048029e-01
 9.00000000e-03  0.00000000e+00   -3.80031407e-01 -3.63079984e-01 -5.48501281e-01
 9.25000000e-03  0.00000000e+00   -4.06865225e-01 -3.79410093e-01 -5.43638889e-01
 9.50000000e-03  0.00000000e+00   -4.11110601e-01 -3.54336393e-01 -5.24696005e-01
 9.75000000e-03  0.00000000e+00   -4.33637397e-01 -3.48459205e-01 -4.88385013e-01
 0.00000000e+00  1.00000000e+00    6.17651854e-03 -2.97384311e-02  1.56468629e-01
 2.50000000e-04  1.00000000e+00    3.47727501e-02 -1.70811985e-02  1.46194922e-01
 5.00000000e-04  1.00000000e+00    3.53566616e-02 -2.33551467e-02  1.40582959e-01
 7.50000000e-04  1.00000000e+00    3.40508101e-02 -3.69592367e-02  1.31817838e-01
 1.00000000e-03  1.00000000e+00    3.47126678e-02 -4.24706225e-02  1.26563909e-01
 1.25000000e-03  1.00000000e+00    2.73422918e-03 -6.54255655e-02  1.14376653e-01
 1.50000000e-03  1.00000000e+00    3.67624780e-02 -3.59990277e-02  1.30746655e-01
 1.75000000e-03  1.00000000e+00    4.98466015e-02 -4.21835279e-02  1.17213696e-01
 2.00000000e-03  1.00000000e+00    2.60446171e-02 -8.73706859e-02  1.14376029e-01
 2.25000000e-03  1.00000000e+00    1.55920974e-02 -6.96409275e-02  3.91923054e-02
 2.50000000e-03  1.00000000e+00    4.33715890e-02 -5.84518319e-02  3.24506217e-02
 2.75000000e-03  1.00000000e+00    3.18220799e-02 -8.82587836e-02  3.82890243e-02
 3.00000000e-03  1.00000000e+00    1.34527189e-02 -1.13154517e-01 -8.83305478e-03
 3.25000000e-03  1.00000000e+00   -3.99514243e-03 -8.13665767e-02 -2.73192215e-02
 3.50000000e-03  1.00000000e+00   -1.44967358e-02 -1.18302975e-01 -6.49155552e-02
 3.75000000e-03  1.00000000e+00   -2.65888955e-02 -1.27741790e-01 -9.54730837e-02
 4.00000000e-03  1.00000000e+00   -4.37362755e-02 -1.40369160e-01 -9.71558618e-02
 4.25000000e-03  1.00000000e+00   -4.19543453e-02 -1.27379237e-01 -9.10689676e-02
 4.50000000e-03  1.00000000e+00   -6.30522381e-02 -1.67153238e-01 -1.24068136e-01
 4.75000000e-03  1.00000000e+00   -5.81845079e-02 -1.80576028e-01 -1.48861640e-01
 5.00000000e-03  1.00000000e+00   -7.25306461e-02 -2.05912163e-01 -2.01193463e-01
 5.25000000e-03  1.00000000e+00   -9.43603200e-02 -2.16413764e-01 -2.57680516e-01
 5.50000000e-03  1.00000000e+00   -9.53958573e-02 -2.44919524e-01 -2.87815503e-01
 5.75000000e-03  1.00000000e+00   -8.41779155e-02 -2.49774090e-01 -3.35944805e-01
 6.00000000e-03  1.00000000e+00   -9.73736708e-02 -2.76938810e-01 -3.82290281e-01
 6.25000000e-03  1.00000000e+00   -1.29802577e-01 -2.84477480e-01 -3.83234198e-01
 6.50000000e-03  1.00000000e+00   -1.66383579e-01 -2.58141334e-01 -4.21027180e-01
 6.75000000e-03  1.00000000e+00   -1.55403607e-01 -2.71667892e-01 -4.51671597e-01
 7.00000000e-03  1.00000000e+00   -1.68602966e-01 -2.74126845e-01 -4.81729723e-01
 7.25000000e-03  1.00000000e+00   -1.96864291e-01 -3.19345086e-01 -4.77947310e-01
 7.50000000e-03  1.00000000e+00   -2.16166026e-01 -3.37373996e-01 -5.12880496e-01
 7.75000000e-03  1.00000000e+00   -2.42823351e-01 -3.49396607e-01 -5.37085105e-01
 8.00000000e-03  1.00000000e+00   -2.48120696e-01 -3.75166786e-01 -5.45365134e-01
 8.25000000e-03  1.00000000e+00   -2.83608667e-01 -3.46600723e-01 -5.23596129e-01
 8.50000000e-03  1.00000000e+00   -3.26284302e-01 -3.46434582e-01 -5.14991079e-01
 8.75000000e-03  1.00000000e+00   -3.48903814e-01 -3.58099892e-01 -5.19228608e-01
 9.00000000e-03  1.00000000e+00   -3.80399895e-01 -3.37870237e-01 -5.25164054e-01
 9.25000000e-03  1.00000000e+00   -4.09987316e-01 -3.53007223e-01 -5.21239536e-01
 9.50000000e-03  1.00000000e+00   -4.14668967e-01 -3.28600416e-01 -5.02922024e-01
 9.75000000e-03  1.00000000e+00   -4.39725132e-01 -3.21889720e-01 -4.67872506e-01
 0.00000000e+00  2.00000000e+00   -1.10287826e-02 -2.35102929e-02  1.72979251e-01
 2.50000000e-04  2.00000000e+00    1.63874052e-02 -1.05444605e-02  1.63941251e-01
 5.00000000e-04  2.00000000e+00    1.62502394e-02 -1.69232349e-02  1.61067142e-01
 7.50000000e-04  2.00000000e+00    1.35382749e-02 -3.01684382e-02  1.54543978e-01
 1.00000000e-03  2.00000000e+00    1.24327493e-02 -3.62833104e-02  1.51226099e-01
 1.25000000e-03  2.00000000e+00   -1.90340314e-02 -6.04547255e-02  1.39707831e-01
 1.50000000e-03  2.00000000e+00    1.30787679e-02 -3.06351895e-02  1.56524245e-01
 1.75000000e-03  2.00000000e+00    2.58898434e-02 -3.70849462e-02  1.43254976e-01
 2.00000000e-03  2.00000000e+00    2.25253332e-03 -8.31144450e-02  1.41172641e-01
 2.25000000e-03  2.00000000e+00   -7.31612680e-03 -6.33930502e-02  6.62828985e-02
 2.50000000e-03  2.00000000e+00    2.22857009e-02 -5.13778058e-02  5.97852158e-02
 2.75000000e-03  2.00000000e+00    1.23600091e-02 -8.19764106e-02  6.75378739e-02
 3.00000000e-03  2.00000000e+00   -4.52867816e-03 -1.07689283e-01  2.10645437e-02
 3.25000000e-03  2.00000000e+00   -2.12991780e-02 -7.56050777e-02  4.59984719e-03
 3.50000000e-03  2.00000000e+00   -3.15729625e-02 -1.14095514e-01 -3.31433953e-02
 3.75000000e-03  2.00000000e+00   -4.17049169e-02 -1.22956746e-01 -6.54506293e-02
 4.00000000e-03  2.00000000e+00   -5.75345943e-02 -1.36025642e-01 -6.81808328e-02
 4.25000000e-03  2.00000000e+00   -5.50870739e-02 -1.23063747e-01 -6.11250613e-02
 4.50000000e-03  2.00000000e+00   -7.57480548e-02 -1.63675784e-01 -9.47130527e-02
 4.75000000e-03  2.00000000e+00   -6.77962069e-02 -1.75545199e-01 -1.21511762e-01
 5.00000000e-03  2.00000000e+00   -7.95751206e-02 -2.02063317e-01 -1.74487261e-01
 5.25000000e-03  2.00000000e+00   -9.96707131e-02 -2.11109427e-01 -2.31524884e-01
 5.50000000e-03  2.00000000e+00   -1.00359929e-01 -2.39797891e-01 -2.61521407e-01
 5.75000000e-03  2.00000000e+00   -8.77723846e-02 -2.43645124e-01 -3.10619488e-01
 6.00000000e-03  2.00000000e+00   -9.95965681e-02 -2.71696898e-01 -3.59179194e-01
 6.25000000e-03  2.00000000e+00   -1.30643656e-01 -2.78377033e-01 -3.61710487e-01
 6.50000000e-03  2.00000000e+00   -1.66122352e-01 -2.52605351e-01 -4.00888247e-01
 6.75000000e-03  2.00000000e+00   -1.52983369e-01 -2.65428142e-01 -4.32590114e-01
 7.00000000e-03  2.00000000e+00   -1.63193374e-01 -2.66382438e-01 -4.64631135e-01
 7.25000000e-03  2.00000000e+00   -1.91519307e-01 -3.09489807e-01 -4.61910083e-01
 7.50000000e-03  2.00000000e+00   -2.09179791e-01 -3.28012643e-01 -4.97868073e-01
 7.75000000e-03  2.00000000e+00   -2.34009413e-01 -3.37650473e-01 -5.23979456e-01
 8.00000000e-03  2.00000000e+00   -2.37508730e-01 -3.62986708e-01 -5.32470747e-01
 8.25000000e-03  2.00000000e+00   -2.72723798e-01 -3.31126580e-01 -5.12594492e-01
 8.50000000e-03  2.00000000e+00   -3.14895722e-01 -3.29462787e-01 -5.05049478e-01
 8.75000000e-03  2.00000000e+00   -3.36787335e-01 -3.40097971e-01 -5.09888941e-01
 9.00000000e-03  2.00000000e+00   -3.67575308e-01 -3.17741223e-01 -5.15810947e-01
 9.25000000e-03  2.00000000e+00   -3.97497068e-01 -3.30391612e-01 -5.12999681e-01
 9.50000000e-03  2.00000000e+00   -4.01957231e-01 -3.04426659e-01 -4.95589759e-01
 9.75000000e-03  2.00000000e+00   -4.25061894e-01 -2.96285251e-01 -4.60780690e-01
 0.00000000e+00  3.00000000e+00   -1.30718569e-02 -3.53266641e-02  1.69747489e-01
 2.50000000e-04  3.00000000e+00    1.40506664e-02 -2.19687770e-02  1.62013322e-01
 5.00000000e-04  3.00000000e+00    1.29398260e-02 -2.76982664e-02  1.58901865e-01
 7.50000000e-04  3.00000000e+00    8.66700121e-03 -4.15428442e-02  1.52272742e-01
 1.00000000e-03  3.00000000e+00    5.93444095e-03 -4.83387809e-02  1.49632744e-01
 1.25000000e-03  3.00000000e+00   -2.75992655e-02 -7.36760768e-02  1.38415096e-01
 1.50000000e-03  3.00000000e+00    3.53338141e-03 -4.39349116e-02  1.55089027e-01
 1.75000000e-03  3.00000000e+00    1.57528056e-02 -5.11573686e-02  1.42173878e-01
 2.00000000e-03  3.00000000e+00   -9.84826949e-03 -9.93713980e-02  1.39348628e-01
 2.25000000e-03  3.00000000e+00   -2.01185766e-02 -7.89175795e-02  6.58702781e-02
 2.50000000e-03  3.00000000e+00    9.00777279e-03 -6.66313157e-02  6.11367179e-02
 2.75000000e-03  3.00000000e+00   -2.14650715e-03 -9.67562407e-02  7.00026569e-02
 3.00000000e-03  3.00000000e+00   -1.95121396e-02 -1.22203513e-01  2.38001984e-02
 3.25000000e-03  3.00000000e+00   -3.75231934e-02 -9.01298560e-02  8.25957742e-03
 3.50000000e-03  3.00000000e+00   -4.82111317e-02 -1.28546380e-01 -2.93708270e-02
 3.75000000e-03  3.00000000e+00   -5.79879859e-02 -1.36352698e-01 -6.18924925e-02
 4.00000000e-03  3.00000000e+00   -7.44444841e-02 -1.48169343e-01 -6.48306995e-02
 4.25000000e-03  3.00000000e+00   -7.13679584e-02 -1.34059125e-01 -5.77588936e-02
 4.50000000e-03  3.00000000e+00   -9.20609587e-02 -1.74370453e-01 -9.07557438e-02
 4.75000000e-03  3.00000000e+00   -8.36732034e-02 -1.85194010e-01 -1.16802068e-01
 5.00000000e-03  3.00000000e+00   -9.42193862e-02 -2.12982839e-01 -1.69014333e-01
 5.25000000e-03  3.00000000e+00   -1.14698731e-01 -2.20529538e-01 -2.26671190e-01
 5.50000000e-03  3.00000000e+00   -1.14998991e-01 -2.48858447e-01 -2.56081943e-01
 5.75000000e-03  3.00000000e+00   -1.02139908e-01 -2.52486003e-01 -3.04647147e-01
 6.00000000e-03  3.00000000e+00   -1.14116392e-01 -2.80796938e-01 -3.53454932e-01
 6.25000000e-03  3.00000000e+00   -1.45108865e-01 -2.87186914e-01 -3.55537676e-01
 6.50000000e-03  3.00000000e+00   -1.79923410e-01 -2.60164211e-01 -3.94098022e-01
 6.75000000e-03  3.00000000e+00   -1.64228906e-01 -2.71905912e-01 -4.25003905e-01
 7.00000000e-03  3.00000000e+00   -1.74646441e-01 -2.71775675e-01 -4.57888970e-01
 7.25000000e-03  3.00000000e+00   -2.02205033e-01 -3.15035378e-01 -4.53495355e-01
 7.50000000e-03  3.00000000e+00   -2.18182425e-01 -3.33241355e-01 -4.89953080e-01
 7.75000000e-03  3.00000000e+00   -2.42325775e-01 -3.43116170e-01 -5.15111965e-01
 8.00000000e-03  3.00000000e+00   -2.44970286e-01 -3.70177511e-01 -5.22963780e-01
 8.25000000e-03  3.00000000e+00   -2.80370207e-01 -3.36793242e-01 -5.03803682e-01
 8.50000000e-03  3.00000000e+00   -3.23059794e-01 -3.35393648e-01 -4.95410086e-01
 8.75000000e-03  3.00000000e+00   -3.43464875e-01 -3.46737157e-01 -4.98743648e-01
 9.00000000e-03  3.00000000e+00   -3.74039895e-01 -3.24492612e-01 -5.02433837e-01
 9.25000000e-03  3.00000000e+00   -4.04817781e-01 -3.36037061e-01 -4.99141151e-01
 9.50000000e-03  3.00000000e+00   -4.09635832e-01 -3.09936367e-01 -4.81659512e-01
 9.75000000e-03  3.00000000e+00   -4.32511403e-01 -3.01062215e-01 -4.46814528e-01
 0.00000000e+00  4.00000000e+00   -2.37377423e-02 -4.30029019e-02  1.98288903e-01
 2.50000000e-04  4.00000000e+00    1.87131089e-03 -3.19521441e-02  1.89843828e-01
 5.00000000e-04  4.00000000e+00    1.41155434e-04 -3.86783224e-02  1.87360532e-01
 7.50000000e-04  4.00000000e+00   -5.84371614e-03 -5.20750863e-02  1.81805926e-01
 1.00000000e-03  4.00000000e+00   -9.22593844e-03 -6.15787329e-02  1.79572194e-01
 1.25000000e-03  4.00000000e+00   -4.12457998e-02 -8.89752261e-02  1.69008959e-01
 1.50000000e-03  4.00000000e+00   -1.01290988e-02 -6.01011688e-02  1.85476327e-01
 1.75000000e-03  4.00000000e+00    2.46579177e-03 -6.95455886e-02  1.72056839e-01
 2.00000000e-03  4.00000000e+00   -2.24679819e-02 -1.18812663e-01  1.69049505e-01
 2.25000000e-03  4.00000000e+00   -3.28158801e-02 -9.89606013e-02  9.62900306e-02
 2.50000000e-03  4.00000000e+00   -3.32652177e-03 -8.70347835e-02  9.08617744e-02
 2.75000000e-03  4.00000000e+00   -1.40526683e-02 -1.16759147e-01  9.90609914e-02
 3.00000000e-03  4.00000000e+00   -3.18621490e-02 -1.43952579e-01  5.18078473e-02
 3.25000000e-03  4.00000000e+00   -5.09162975e-02 -1.11775323e-01  3.50066140e-02
 3.50000000e-03  4.00000000e+00   -6.13850623e-02 -1.49866995e-01 -4.09974075e-03
 3.75000000e-03  4.00000000e+00   -6.94227170e-02 -1.56778171e-01 -3.70346796e-02
 4.00000000e-03  4.00000000e+00   -8.55111111e-02 -1.68418317e-01 -4.20170292e-02
 4.25000000e-03  4.00000000e+00   -8.24579803e-02 -1.55438497e-01 -3.55486191e-02
 4.50000000e-03  4.00000000e+00   -1.03071838e-01 -1.95484521e-01 -6.93649893e-02
 4.75000000e-03  4.00000000e+00   -9.30475313e-02 -2.06182520e-01 -9.65187679e-02
 5.00000000e-03  4.00000000e+00   -1.03669297e-01 -2.34266352e-01 -1.49733055e-01
 5.25000000e-03  4.00000000e+00   -1.22869135e-01 -2.40551256e-01 -2.06842220e-01
 5.50000000e-03  4.00000000e+00   -1.22566957e-01 -2.66751684e-01 -2.38346734e-01
 5.75000000e-03  4.00000000e+00   -1.09654611e-01 -2.70841467e-01 -2.88571671e-01
 6.00000000e-03  4.00000000e+00   -1.20821442e-01 -2.97237879e-01 -3.36847941e-01
 6.25000000e-03  4.00000000e+00   -1.52329324e-01 -3.03582971e-01 -3.39906720e-01
 6.50000000e-03  4.00000000e+00   -1.85036293e-01 -2.75675005e-01 -3.79568101e-01
 6.75000000e-03  4.00000000e+00   -1.67271090e-01 -2.85998763e-01 -4.11727861e-01
 7.00000000e-03  4.00000000e+00   -1.75441487e-01 -2.84665352e-01 -4.44788933e-01
 7.25000000e-03  4.00000000e+00   -2.01894028e-01 -3.26385361e-01 -4.40349561e-01
 7.50000000e-03  4.00000000e+00   -2.16284995e-01 -3.44053375e-01 -4.77642227e-01
 7.75000000e-03  4.00000000e+00   -2.37985986e-01 -3.52946331e-01 -5.03277382e-01
 8.00000000e-03  4.00000000e+00   -2.38036396e-01 -3.79154372e-01 -5.10991987e-01
 8.25000000e-03  4.00000000e+00   -2.70012276e-01 -3.42004954e-01 -4.91483887e-01
 8.50000000e-03  4.00000000e+00   -3.12279889e-01 -3.39359732e-01 -4.81796005e-01
 8.75000000e-03  4.00000000e+00   -3.29571054e-01 -3.50796414e-01 -4.85536969e-01
 9.00000000e-03  4.00000000e+00   -3.57964022e-01 -3.25838861e-01 -4.87679300e-01
 9.25000000e-03  4.00000000e+00   -3.88521215e-01 -3.37885603e-01 -4.84982384e-01
 9.50000000e-03  4.00000000e+00   -3.91812187e-01 -3.11984790e-01 -4.68623132e-01
 9.75000000e-03  4.00000000e+00   -4.11973793e-01 -3.01893548e-01 -4.34350384e-01
 0.00000000e+00  5.00000000e+00   -1.15264102e-02 -5.34691200e-02  1.99318886e-01
 2.50000000e-04  5.00000000e+00    1.36908246e-02 -4.33754767e-02  1.90703258e-01
 5.00000000e-04  5.00000000e+00    1.08207495e-02 -5.02142380e-02  1.89593514e-01
 7.50000000e-04  5.00000000e+00    2.55850035e-03 -6.23741057e-02  1.84514139e-01
 1.00000000e-03  5.00000000e+00   -4.37829066e-04 -7.25415361e-02  1.83419183e-01
 1.25000000e-03  5.00000000e+00   -3.29164796e-02 -9.95855737e-02  1.73730697e-01
 1.50000000e-03  5.00000000e+00   -3.38027584e-03 -7.06995772e-02  1.89572170e-01
 1.75000000e-03  5.00000000e+00    7.89078787e-03 -8.07038261e-02  1.74596476e-01
 2.00000000e-03  5.00000000e+00   -1.90926497e-02 -1.29782654e-01  1.71956736e-01
 2.25000000e-03  5.00000000e+00   -2.86990316e-02 -1.09644618e-01  9.93268644e-02
 2.50000000e-03  5.00000000e+00    3.10536450e-04 -9.76046527e-02  9.43175695e-02
 2.75000000e-03  5.00000000e+00   -1.14201820e-02 -1.26315331e-01  1.04074532e-01
 3.00000000e-03  5.00000000e+00   -3.04197498e-02 -1.52690963e-01  5.67023436e-02
 3.25000000e-03  5.00000000e+00   -5.08735984e-02 -1.19886585e-01  4.21731225e-02
 3.50000000e-03  5.00000000e+00   -6.16820200e-02 -1.57619935e-01  4.08372526e-03
 3.75000000e-03  5.00000000e+00   -6.93987289e-02 -1.63569767e-01 -2.91514907e-02
 4.00000000e-03  5.00000000e+00   -8.68487853e-02 -1.72818939e-01 -3.43665120e-02
 4.25000000e-03  5.00000000e+00   -8.40246039e-02 -1.59680426e-01 -2.83933175e-02
 4.50000000e-03  5.00000000e+00   -1.03770525e-01 -1.99237723e-01 -6.18173795e-02
 4.75000000e-03  5.00000000e+00   -9.25626162e-02 -2.08799873e-01 -8.90536350e-02
 5.00000000e-03  5.00000000e+00   -1.02999123e-01 -2.35126635e-01 -1.41076391e-01
 5.25000000e-03  5.00000000e+00   -1.23196176e-01 -2.41086096e-01 -1.97749996e-01
 5.50000000e-03  5.00000000e+00   -1.24359345e-01 -2.66558187e-01 -2.29353449e-01
 5.75000000e-03  5.00000000e+00   -1.12389477e-01 -2.71224344e-01 -2.79042310e-01
 6.00000000e-03  5.00000000e+00   -1.23474373e-01 -2.96093471e-01 -3.26475002e-01
 6.25000000e-03  5.00000000e+00   -1.54753084e-01 -3.02420840e-01 -3.28861681e-01
 6.50000000e-03  5.00000000e+00   -1.87012943e-01 -2.72763681e-01 -3.66708739e-01
 6.75000000e-03  5.00000000e+00   -1.68617702e-01 -2.82509081e-01 -3.98438694e-01
 7.00000000e-03  5.00000000e+00   -1.74562312e-01 -2.79775651e-01 -4.31178150e-01
 7.25000000e-03  5.00000000e+00   -2.00282913e-01 -3.20153652e-01 -4.24976000e-01
 7.50000000e-03  5.00000000e+00   -2.14587478e-01 -3.35647025e-01 -4.60923026e-01
 7.75000000e-03  5.00000000e+00   -2.35178074e-01 -3.43985417e-01 -4.86143656e-01
 8.00000000e-03  5.00000000e+00   -2.33204928e-01 -3.68875400e-01 -4.93740144e-01
 8.25000000e-03  5.00000000e+00   -2.64193194e-01 -3.30073413e-01 -4.73656219e-01
 8.50000000e-03  5.00000000e+00   -3.06234376e-01 -3.26094312e-01 -4.62222472e-01
 8.75000000e-03  5.00000000e+00   -3.22730863e-01 -3.35847533e-01 -4.64944317e-01
 9.00000000e-03  5.00000000e+00   -3.50254411e-01 -3.10130454e-01 -4.66383681e-01
 9.25000000e-03  5.00000000e+00   -3.81343817e-01 -3.21443172e-01 -4.63426846e-01
 9.50000000e-03  5.00000000e+00   -3.83308782e-01 -2.94382009e-01 -4.47097511e-01
 9.75000000e-03  5.00000000e+00   -4.03121225e-01 -2.84842338e-01 -4.14421308e-01
 0.00000000e+00  6.00000000e+00   -1.66890903e-02 -5.34528827e-02  2.04349631e-01
 2.50000000e-04  6.00000000e+00    1.02310671e-02 -4.34423735e-02  1.94907280e-01
 5.00000000e-04  6.00000000e+00    6.38415528e-03 -5.10179075e-02  1.93586032e-01
 7.50000000e-04  6.00000000e+00   -3.33024627e-03 -6.28711012e-02  1.87478106e-01
 1.00000000e-03  6.00000000e+00   -5.97518749e-03 -7.34223634e-02  1.85577824e-01
 1.25000000e-03  6.00000000e+00   -3.84481705e-02 -1.01220337e-01  1.75318729e-01
 1.50000000e-03  6.00000000e+00   -9.46680392e-03 -7.13197480e-02  1.91152631e-01
 1.75000000e-03  6.00000000e+00    2.70919405e-03 -8.23662879e-02  1.75072248e-01
 2.00000000e-03  6.00000000e+00   -2.37462844e-02 -1.30801003e-01  1.70544601e-01
 2.25000000e-03  6.00000000e+00   -3.31517452e-02 -1.11250468e-01  9.77883883e-02
 2.50000000e-03  6.00000000e+00   -4.13736632e-03 -9.83383417e-02  9.33705391e-02
 2.75000000e-03  6.00000000e+00   -1.65979107e-02 -1.26879143e-01  1.03478348e-01
 3.00000000e-03  6.00000000e+00   -3.57442539e-02 -1.54978493e-01  5.56465529e-02
 3.25000000e-03  6.00000000e+00   -5.80940321e-02 -1.22681429e-01  4.30932814e-02
 3.50000000e-03  6.00000000e+00   -6.94921177e-02 -1.61688865e-01  5.71146524e-03
 3.75000000e-03  6.00000000e+00   -7.60617682e-02 -1.67667913e-01 -2.65021444e-02
 4.00000000e-03  6.00000000e+00   -9.37066369e-02 -1.76139545e-01 -3.12629152e-02
 4.25000000e-03  6.00000000e+00   -9.08421506e-02 -1.63489812e-01 -2.42217283e-02
 4.50000000e-03  6.00000000e+00   -1.09061167e-01 -2.04006031e-01 -5.44268685e-02
 4.75000000e-03  6.00000000e+00   -9.78544417e-02 -2.13052818e-01 -8.07568739e-02
 5.00000000e-03  6.00000000e+00   -1.08049575e-01 -2.40424198e-01 -1.32125479e-01
 5.25000000e-03  6.00000000e+00   -1.28794268e-01 -2.45625761e-01 -1.87384758e-01
 5.50000000e-03  6.00000000e+00   -1.31423411e-01 -2.72785424e-01 -2.18335005e-01
 5.75000000e-03  6.00000000e+00   -1.19218978e-01 -2.78187963e-01 -2.66667984e-01
 6.00000000e-03  6.00000000e+00   -1.29032707e-01 -3.04356761e-01 -3.13666960e-01
 6.25000000e-03  6.00000000e+00   -1.60343620e-01 -3.11078156e-01 -3.17346844e-01
 6.50000000e-03  6.00000000e+00   -1.90380739e-01 -2.81759178e-01 -3.53016661e-01
 6.75000000e-03  6.00000000e+00   -1.70416298e-01 -2.92428400e-01 -3.83801842e-01
 7.00000000e-03  6.00000000e+00   -1.74003414e-01 -2.90121840e-01 -4.16541536e-01
 7.25000000e-03  6.00000000e+00   -1.99461011e-01 -3.30669394e-01 -4.09239682e-01
 7.50000000e-03  6.00000000e+00   -2.13180466e-01 -3.47175335e-01 -4.43821636e-01
 7.75000000e-03  6.00000000e+00   -2.31174791e-01 -3.54894313e-01 -4.67270647e-01
 8.00000000e-03  6.00000000e+00   -2.28395670e-01 -3.80827900e-01 -4.73633395e-01
 8.25000000e-03  6.00000000e+00   -2.58732635e-01 -3.39982451e-01 -4.55800691e-01
 8.50000000e-03  6.00000000e+00   -2.99120616e-01 -3.34820337e-01 -4.43095346e-01
 8.75000000e-03  6.00000000e+00   -3.13699160e-01 -3.44250943e-01 -4.45262995e-01
 9.00000000e-03  6.00000000e+00   -3.39225627e-01 -3.16899160e-01 -4.47250134e-01
 9.25000000e-03  6.00000000e+00   -3.71242616e-01 -3.28088170e-01 -4.46116620e-01
 9.50000000e-03  6.00000000e+00   -3.71364658e-01 -3.00374881e-01 -4.32863735e-01
 9.75000000e-03  6.00000000e+00   -3.89408361e-01 -2.89563007e-01 -4.01035854e-01
 0.00000000e+00  7.00000000e+00   -7.44168653e-03 -7.72418413e-02  2.21229182e-01
 2.50000000e-04  7.00000000e+00    1.91535624e-02 -6.99808363e-02  2.12978425e-01
 5.00000000e-04  7.00000000e+00    1.52421985e-02 -7.98725326e-02  2.11782618e-01
 7.50000000e-04  7.00000000e+00    3.85112100e-03 -9.46520101e-02  2.06368177e-01
 1.00000000e-03  7.00000000e+00    1.58807283e-03 -1.08502491e-01  2.05121950e-01
 1.25000000e-03  7.00000000e+00   -3.06552795e-02 -1.40033454e-01  1.95520688e-01
 1.50000000e-03  7.00000000e+00   -3.60546874e-03 -1.11861989e-01  2.11952033e-01
 1.75000000e-03  7.00000000e+00    9.78917784e-03 -1.26313242e-01  1.95385997e-01
 2.00000000e-03  7.00000000e+00   -1.72133790e-02 -1.76854996e-01  1.90295979e-01
 2.25000000e-03  7.00000000e+00   -2.67884463e-02 -1.58575775e-01  1.19053130e-01
 2.50000000e-03  7.00000000e+00    1.59063980e-03 -1.45500141e-01  1.15089967e-01
 2.75000000e-03  7.00000000e+00   -1.06793766e-02 -1.74794549e-01  1.28358209e-01
 3.00000000e-03  7.00000000e+00   -2.97174462e-02 -2.05054643e-01  8.02982625e-02
 3.25000000e-03  7.00000000e+00   -5.15204342e-02 -1.73800639e-01  6.77122543e-02
 3.50000000e-03  7.00000000e+00   -6.26258273e-02 -2.14076246e-01  3.12461448e-02
 3.75000000e-03  7.00000000e+00   -6.75917777e-02 -2.19267111e-01 -5.94779637e-04
 4.00000000e-03  7.00000000e+00   -8.56008570e-02 -2.28159940e-01 -5.69112997e-03
 4.25000000e-03  7.00000000e+00   -8.25463413e-02 -2.16002437e-01  2.73649506e-03
 4.50000000e-03  7.00000000e+00   -1.01229109e-01 -2.56217480e-01 -2.71927362e-02
 4.75000000e-03  7.00000000e+00   -8.90377654e-02 -2.64556121e-01 -5.32341278e-02
 5.00000000e-03  7.00000000e+00   -9.95910292e-02 -2.91280904e-01 -1.05473001e-01
 5.25000000e-03  7.00000000e+00   -1.19877074e-01 -2.95111445e-01 -1.60412217e-01
 5.50000000e-03  7.00000000e+00   -1.22760590e-01 -3.20995843e-01 -1.91045226e-01
 5.75000000e-03  7.00000000e+00   -1.10688067e-01 -3.24846554e-01 -2.40236879e-01
 6.00000000e-03  7.00000000e+00   -1.19971056e-01 -3.49714048e-01 -2.88805306e-01
 6.25000000e-03  7.00000000e+00   -1.50282051e-01 -3.54910098e-01 -2.94968316e-01
 6.50000000e-03  7.00000000e+00   -1.79104238e-01 -3.24018510e-01 -3.30657687e-01
 6.75000000e-03  7.00000000e+00   -1.58296525e-01 -3.32431069e-01 -3.61559279e-01
 7.00000000e-03  7.00000000e+00   -1.60566091e-01 -3.27829841e-01 -3.95280832e-01
 7.25000000e-03  7.00000000e+00   -1.86598041e-01 -3.66554740e-01 -3.88731162e-01
 7.50000000e-03  7.00000000e+00   -2.00860119e-01 -3.79958986e-01 -4.22005720e-01
 7.75000000e-03  7.00000000e+00   -2.17833352e-01 -3.84250517e-01 -4.46192382e-01
 8.00000000e-03  7.00000000e+00   -2.15109549e-01 -4.08470843e-01 -4.52703380e-01
 8.25000000e-03  7.00000000e+00   -2.46552346e-01 -3.65486960e-01 -4.35730288e-01
 8.50000000e-03  7.00000000e+00   -2.86604343e-01 -3.58061660e-01 -4.23482116e-01
 8.75000000e-03  7.00000000e+00   -3.01399497e-01 -3.65272954e-01 -4.26383575e-01
 9.00000000e-03  7.00000000e+00   -3.26743576e-01 -3.34791111e-01 -4.28784787e-01
 9.25000000e-03  7.00000000e+00   -3.59620079e-01 -3.42723513e-01 -4.29087897e-01
 9.50000000e-03  7.00000000e+00   -3.61559927e-01 -3.13002723e-01 -4.17298242e-01
 9.75000000e-03  7.00000000e+00   -3.80417922e-01 -2.99713728e-01 -3.86583160e-01
 0.00000000e+00  8.00000000e+00   -1.69795346e-02 -9.47895607e-02  2.19655030e-01
 2.50000000e-04  8.00000000e+00    8.53283881e-03 -8.76222294e-02  2.13113214e-01
 5.00000000e-04  8.00000000e+00    4.24653782e-03 -9.94274493e-02  2.13413319e-01
 7.50000000e-04  8.00000000e+00   -8.17907141e-03 -1.13050340e-01  2.09402231e-01
 1.00000000e-03  8.00000000e+00   -1.10042402e-02 -1.26653830e-01  2.09842727e-01
 1.25000000e-03  8.00000000e+00   -4.20951459e-02 -1.60181628e-01  2.01186076e-01
 1.50000000e-03  8.00000000e+00   -1.59601601e-02 -1.32502112e-01  2.19718033e-01
 1.75000000e-03  8.00000000e+00   -1.80209353e-03 -1.47050529e-01  2.04897698e-01
 2.00000000e-03  8.00000000e+00   -2.87227019e-02 -1.97703949e-01  2.01696684e-01
 2.25000000e-03  8.00000000e+00   -3.78211312e-02 -1.78213658e-01  1.32225890e-01
 2.50000000e-03  8.00000000e+00   -9.65977251e-03 -1.64687368e-01  1.29139792e-01
 2.75000000e-03  8.00000000e+00   -2.16237309e-02 -1.94003830e-01  1.43691362e-01
 3.00000000e-03  8.00000000e+00   -3.89634598e-02 -2.24173341e-01  9.80405971e-02
 3.25000000e-03  8.00000000e+00   -5.92831750e-02 -1.92482950e-01  8.68470214e-02
 3.50000000e-03  8.00000000e+00   -6.83219777e-02 -2.33543960e-01  5.13909497e-02
 3.75000000e-03  8.00000000e+00   -7.09971897e-02 -2.38527680e-01  1.86996231e-02
 4.00000000e-03  8.00000000e+00   -8.68351154e-02 -2.47005130e-01  1.43302941e-02
 4.25000000e-03  8.00000000e+00   -8.19012023e-02 -2.34623853e-01  2.43791612e-02
 4.50000000e-03  8.00000000e+00   -9.86347305e-02 -2.74465170e-01 -4.88684984e-03
 4.75000000e-03  8.00000000e+00   -8.51877173e-02 -2.82114817e-01 -3.05021408e-02
 5.00000000e-03  8.00000000e+00   -9.42718725e-02 -3.08738230e-01 -8.28257391e-02
 5.25000000e-03  8.00000000e+00   -1.12724665e-01 -3.11517060e-01 -1.38326443e-01
 5.50000000e-03  8.00000000e+00   -1.15184859e-01 -3.36263745e-01 -1.69229659e-01
 5.75000000e-03  8.00000000e+00   -1.01133334e-01 -3.38891032e-01 -2.19450102e-01
 6.00000000e-03  8.00000000e+00   -1.08983191e-01 -3.62594385e-01 -2.69164811e-01
 6.25000000e-03  8.00000000e+00   -1.37303047e-01 -3.67346368e-01 -2.77816736e-01
 6.50000000e-03  8.00000000e+00   -1.63514678e-01 -3.36240164e-01 -3.15303757e-01
 6.75000000e-03  8.00000000e+00   -1.39739863e-01 -3.43276293e-01 -3.48030655e-01
 7.00000000e-03  8.00000000e+00   -1.39281423e-01 -3.37978787e-01 -3.82707845e-01
 7.25000000e-03  8.00000000e+00   -1.65374312e-01 -3.74807202e-01 -3.78401980e-01
 7.50000000e-03  8.00000000e+00   -1.78031856e-01 -3.87580897e-01 -4.12588446e-01
 7.75000000e-03  8.00000000e+00   -1.93200670e-01 -3.91305637e-01 -4.36663180e-01
 8.00000000e-03  8.00000000e+00   -1.88900134e-01 -4.14442068e-01 -4.44912660e-01
 8.25000000e-03  8.00000000e+00   -2.20240763e-01 -3.70855790e-01 -4.30284264e-01
 8.50000000e-03  8.00000000e+00   -2.60366171e-01 -3.62413549e-01 -4.18341717e-01
 8.75000000e-03  8.00000000e+00   -2.73468396e-01 -3.69944946e-01 -4.22945309e-01
 9.00000000e-03  8.00000000e+00   -2.98467632e-01 -3.37944490e-01 -4.25134393e-01
 9.25000000e-03  8.00000000e+00   -3.32883343e-01 -3.44250009e-01 -4.26934893e-01
 9.50000000e-03  8.00000000e+00   -3.35286355e-01 -3.14215778e-01 -4.16381844e-01
 9.75000000e-03  8.00000000e+00   -3.54550042e-01 -3.01119540e-01 -3.86063506e-01
 0.00000000e+00  9.00000000e+00   -2.45856376e-02 -6.99514593e-02  2.31038804e-01
 2.50000000e-04  9.00000000e+00    1.96506796e-03 -6.18907774e-02  2.24757181e-01
 5.00000000e-04  9.00000000e+00   -2.43461865e-03 -7.22043799e-02  2.25057246e-01
 7.50000000e-04  9.00000000e+00   -1.57028489e-02 -8.60133462e-02  2.22600931e-01