TITLE = "pert vel"
VARIABLES = "r", "z", "u", "v", "w"
ZONE i=40, j=1000
 0.00000000e+00  1.00000000e+03   -2.42490821e-01  2.31149105e-01  4.55887750e-01
 2.50000000e-04  1.00000000e+03   -2.49947824e-01  2.19620742e-01  4.37458482e-01
 5.00000000e-04  1.00000000e+03   -2.88507917e-01  2.15093581e-01  4.27411104e-01
 7.50000000e-04  1.00000000e+03   -3.12674999e-01  2.10667417e-01  4.08188624e-01
 1.00000000e-03  1.00000000e+03   -3.33916366e-01  2.26253131e-01  3.63452643e-01
 1.25000000e-03  1.00000000e+03   -3.33069639e-01  2.52769281e-01  3.06820592e-01
 1.50000000e-03  1.00000000e+03   -3.51428074e-01  2.44523696e-01  2.85372489e-01
 1.75000000e-03  1.00000000e+03   -3.71411111e-01  2.41706639e-01  2.36635750e-01
 2.00000000e-03  1.00000000e+03   -4.12192025e-01  2.05724258e-01  2.09860728e-01
 2.25000000e-03  1.00000000e+03   -4.50898882e-01  2.16681514e-01  1.53537099e-01
 2.50000000e-03  1.00000000e+03   -4.82146074e-01  2.12067850e-01  8.76805315e-02
 2.75000000e-03  1.00000000e+03   -5.39285824e-01  1.98444691e-01  4.69286914e-02
 3.00000000e-03  1.00000000e+03   -5.62711209e-01  1.92891639e-01  2.64712352e-03
 3.25000000e-03  1.00000000e+03   -5.99963638e-01  2.05544733e-01 -4.84017423e-02
 3.50000000e-03  1.00000000e+03   -6.27241485e-01  1.83342130e-01 -1.02669400e-01
 3.75000000e-03  1.00000000e+03   -6.62982965e-01  1.68629013e-01 -1.62160737e-01
 4.00000000e-03  1.00000000e+03   -6.61466161e-01  1.34050420e-01 -1.84204836e-01
 4.25000000e-03  1.00000000e+03   -6.78375173e-01  1.12712718e-01 -2.15630966e-01
 4.50000000e-03  1.00000000e+03   -6.86826381e-01  1.13168390e-01 -2.82386408e-01
 4.75000000e-03  1.00000000e+03   -7.18675044e-01  1.28169379e-01 -3.14657698e-01
 5.00000000e-03  1.00000000e+03   -7.50006091e-01  1.42720801e-01 -3.25131995e-01
 5.25000000e-03  1.00000000e+03   -7.64122657e-01  1.30385729e-01 -3.35510115e-01
 5.50000000e-03  1.00000000e+03   -7.93523035e-01  1.21942432e-01 -3.66185820e-01
 5.75000000e-03  1.00000000e+03   -7.89553737e-01  1.04578421e-01 -3.75197338e-01
 6.00000000e-03  1.00000000e+03   -7.66013876e-01  8.11268859e-02 -3.55664096e-01
 6.25000000e-03  1.00000000e+03   -7.87297868e-01  7.17662977e-02 -3.65820050e-01
 6.50000000e-03  1.00000000e+03   -7.72794117e-01  5.48456660e-02 -3.54395288e-01
 6.75000000e-03  1.00000000e+03   -7.58931359e-01  6.84572166e-02 -3.71518581e-01
 7.00000000e-03  1.00000000e+03   -7.35299344e-01  1.05431490e-02 -3.37693185e-01
 7.25000000e-03  1.00000000e+03   -7.14384533e-01 -3.61473585e-03 -2.99962169e-01
 7.50000000e-03  1.00000000e+03   -6.94520820e-01 -1.43535435e-02 -2.49066226e-01
 7.75000000e-03  1.00000000e+03   -6.74309246e-01 -5.45991462e-02 -2.11240581e-01
 8.00000000e-03  1.00000000e+03   -6.49769301e-01 -6.17460049e-02 -1.38440439e-01
 8.25000000e-03  1.00000000e+03   -6.07143468e-01 -6.04358579e-02 -9.76456954e-02
 8.50000000e-03  1.00000000e+03   -5.59306352e-01 -7.14819741e-02 -6.15438412e-02
 8.75000000e-03  1.00000000e+03   -5.35000885e-01 -9.69369784e-02 -2.60823265e-02
 9.00000000e-03  1.00000000e+03   -4.89827381e-01 -1.35490360e-01  1.35315967e-02
 9.25000000e-03  1.00000000e+03   -4.27182027e-01 -1.37323364e-01  6.15488997e-02
 9.50000000e-03  1.00000000e+03   -3.83522505e-01 -1.63173181e-01  1.16065695e-01
 9.75000000e-03  1.00000000e+03   -3.37341184e-01 -1.70894920e-01  1.49668209e-01
 0.00000000e+00  1.00100000e+03   -2.42042417e-01  2.47209575e-01  4.72698811e-01
 2.50000000e-04  1.00100000e+03   -2.47770748e-01  2.36935625e-01  4.56067770e-01
 5.00000000e-04  1.00100000e+03   -2.84001583e-01  2.33212237e-01  4.46137079e-01
 7.50000000e-04  1.00100000e+03   -3.06880454e-01  2.28936955e-01  4.26759761e-01
 1.00000000e-03  1.00100000e+03   -3.29107517e-01  2.42452400e-01  3.81542119e-01
 1.25000000e-03  1.00100000e+03   -3.26196334e-01  2.67240178e-01  3.26792007e-01
 1.50000000e-03  1.00100000e+03   -3.44151359e-01  2.60019573e-01  3.05489538e-01
 1.75000000e-03  1.00100000e+03   -3.62571245e-01  2.57254521e-01  2.57127294e-01
 2.00000000e-03  1.00100000e+03   -4.02958035e-01  2.21834157e-01  2.32060994e-01
 2.25000000e-03  1.00100000e+03   -4.41893007e-01  2.32982314e-01  1.76276604e-01
 2.50000000e-03  1.00100000e+03   -4.72448658e-01  2.27427753e-01  1.10732665e-01
 2.75000000e-03  1.00100000e+03   -5.28970933e-01  2.13873869e-01  6.92907704e-02
 3.00000000e-03  1.00100000e+03   -5.52916747e-01  2.07848473e-01  2.62335069e-02
 3.25000000e-03  1.00100000e+03   -5.90550615e-01  2.19527900e-01 -2.31214567e-02
 3.50000000e-03  1.00100000e+03   -6.17874465e-01  1.97107036e-01 -7.65429931e-02
 3.75000000e-03  1.00100000e+03   -6.55789549e-01  1.82923474e-01 -1.36911135e-01
 4.00000000e-03  1.00100000e+03   -6.56730720e-01  1.48318131e-01 -1.59153339e-01
 4.25000000e-03  1.00100000e+03   -6.72762831e-01  1.26512282e-01 -1.91055527e-01
 4.50000000e-03  1.00100000e+03   -6.83056238e-01  1.27180350e-01 -2.57400978e-01
 4.75000000e-03  1.00100000e+03   -7.14980878e-01  1.41913028e-01 -2.90865026e-01
 5.00000000e-03  1.00100000e+03   -7.45891287e-01  1.56981946e-01 -3.02701259e-01
 5.25000000e-03  1.00100000e+03   -7.59519612e-01  1.43797955e-01 -3.12968172e-01
 5.50000000e-03  1.00100000e+03   -7.88916677e-01  1.35881829e-01 -3.44689606e-01
 5.75000000e-03  1.00100000e+03   -7.85439679e-01  1.18118802e-01 -3.55882159e-01
 6.00000000e-03  1.00100000e+03   -7.61053733e-01  9.39446655e-02 -3.38105234e-01
 6.25000000e-03  1.00100000e+03   -7.83634376e-01  8.56265930e-02 -3.48680900e-01
 6.50000000e-03  1.00100000e+03   -7.69313609e-01  6.86989699e-02 -3.37689444e-01
 6.75000000e-03  1.00100000e+03   -7.55053837e-01  8.38828776e-02 -3.56519309e-01
 7.00000000e-03  1.00100000e+03   -7.31582554e-01  2.57197445e-02 -3.23575198e-01
 7.25000000e-03  1.00100000e+03   -7.10924868e-01  9.73430993e-03 -2.89326893e-01
 7.50000000e-03  1.00100000e+03   -6.91560277e-01 -8.44426756e-05 -2.39914069e-01
 7.75000000e-03  1.00100000e+03   -6.69838150e-01 -4.08016981e-02 -2.05088661e-01
 8.00000000e-03  1.00100000e+03   -6.44163862e-01 -4.96654818e-02 -1.35548446e-01
 8.25000000e-03  1.00100000e+03   -6.02006712e-01 -4.80729330e-02 -9.52512931e-02
 8.50000000e-03  1.00100000e+03   -5.52806332e-01 -5.94478203e-02 -6.00614254e-02
 8.75000000e-03  1.00100000e+03   -5.28019271e-01 -8.51745468e-02 -2.74652783e-02
 9.00000000e-03  1.00100000e+03   -4.83726213e-01 -1.23192057e-01  1.11585517e-02
 9.25000000e-03  1.00100000e+03   -4.21163846e-01 -1.25899674e-01  5.56356555e-02
 9.50000000e-03  1.00100000e+03   -3.76447505e-01 -1.52931050e-01  1.08909155e-01
 9.75000000e-03  1.00100000e+03   -3.28776367e-01 -1.62118624e-01  1.39823837e-01
 0.00000000e+00  1.00200000e+03   -2.56378909e-01  2.67566997e-01  5.10099617e-01
 2.50000000e-04  1.00200000e+03   -2.60659355e-01  2.56886402e-01  4.92150241e-01
 5.00000000e-04  1.00200000e+03   -2.96574887e-01  2.54797060e-01  4.81462845e-01
 7.50000000e-04  1.00200000e+03   -3.18912914e-01  2.51292461e-01  4.61556973e-01
 1.00000000e-03  1.00200000e+03   -3.42577978e-01  2.64368141e-01  4.14332590e-01
 1.25000000e-03  1.00200000e+03   -3.39974641e-01  2.88008123e-01  3.58934498e-01
 1.50000000e-03  1.00200000e+03   -3.57847849e-01  2.81160229e-01  3.34765059e-01
 1.75000000e-03  1.00200000e+03   -3.76006685e-01  2.78633549e-01  2.84529041e-01
 2.00000000e-03  1.00200000e+03   -4.14871167e-01  2.44330632e-01  2.58549214e-01
 2.25000000e-03  1.00200000e+03   -4.53485442e-01  2.55212710e-01  2.02899502e-01
 2.50000000e-03  1.00200000e+03   -4.82343503e-01  2.47711889e-01  1.37066160e-01
 2.75000000e-03  1.00200000e+03   -5.38715440e-01  2.34343461e-01  9.37497118e-02
 3.00000000e-03  1.00200000e+03   -5.61436857e-01  2.29104346e-01  4.90552253e-02
 3.25000000e-03  1.00200000e+03   -5.98865236e-01  2.40403796e-01 -1.26313092e-03
 3.50000000e-03  1.00200000e+03   -6.25870067e-01  2.17846676e-01 -5.50907753e-02
 3.75000000e-03  1.00200000e+03   -6.65493913e-01  2.02109384e-01 -1.17315314e-01
 4.00000000e-03  1.00200000e+03   -6.66183231e-01  1.67266950e-01 -1.40291974e-01
 4.25000000e-03  1.00200000e+03   -6.81261202e-01  1.44918832e-01 -1.70953257e-01
 4.50000000e-03  1.00200000e+03   -6.92474811e-01  1.44436592e-01 -2.37545881e-01
 4.75000000e-03  1.00200000e+03   -7.23747675e-01  1.58929304e-01 -2.71671830e-01
 5.00000000e-03  1.00200000e+03   -7.54848381e-01  1.73414234e-01 -2.84503586e-01
 5.25000000e-03  1.00200000e+03   -7.67744713e-01  1.59859480e-01 -2.93474132e-01
 5.50000000e-03  1.00200000e+03   -7.96655529e-01  1.52372861e-01 -3.25289476e-01
 5.75000000e-03  1.00200000e+03   -7.94078321e-01  1.34315418e-01 -3.37452429e-01
 6.00000000e-03  1.00200000e+03   -7.69975369e-01  1.09697926e-01 -3.19520274e-01
 6.25000000e-03  1.00200000e+03   -7.92487869e-01  1.00785801e-01 -3.29934827e-01
 6.50000000e-03  1.00200000e+03   -7.79084469e-01  8.42921982e-02 -3.18645946e-01
 6.75000000e-03  1.00200000e+03   -7.65660367e-01  9.90619653e-02 -3.37218687e-01
 7.00000000e-03  1.00200000e+03   -7.42738895e-01  4.11433602e-02 -3.04871536e-01
 7.25000000e-03  1.00200000e+03   -7.22955959e-01  2.52407316e-02 -2.71083654e-01
 7.50000000e-03  1.00200000e+03   -7.04304408e-01  1.49952573e-02 -2.22656979e-01
 7.75000000e-03  1.00200000e+03   -6.82021455e-01 -2.60600898e-02 -1.88638829e-01
 8.00000000e-03  1.00200000e+03   -6.55753882e-01 -3.49001707e-02 -1.19737008e-01
 8.25000000e-03  1.00200000e+03   -6.14083340e-01 -3.37925966e-02 -7.95684591e-02
 8.50000000e-03  1.00200000e+03   -5.65877858e-01 -4.52737892e-02 -4.56196704e-02
 8.75000000e-03  1.00200000e+03   -5.41682032e-01 -7.16893172e-02 -1.35681663e-02
 9.00000000e-03  1.00200000e+03   -4.97344799e-01 -1.09635565e-01  2.46572179e-02
 9.25000000e-03  1.00200000e+03   -4.35471255e-01 -1.12771561e-01  6.62963047e-02
 9.50000000e-03  1.00200000e+03   -3.91506459e-01 -1.40243583e-01  1.18719128e-01
 9.75000000e-03  1.00200000e+03   -3.45152565e-01 -1.50786859e-01  1.48513567e-01
 0.00000000e+00  1.00300000e+03   -2.57520365e-01  2.83520683e-01  5.46425910e-01
 2.50000000e-04  1.00300000e+03   -2.61740358e-01  2.74588811e-01  5.28912836e-01
 5.00000000e-04  1.00300000e+03   -2.97560489e-01  2.73613260e-01  5.18346002e-01
 7.50000000e-04  1.00300000e+03   -3.19851694e-01  2.73393107e-01  4.97657526e-01
 1.00000000e-03  1.00300000e+03   -3.44719196e-01  2.86375209e-01  4.49260557e-01
 1.25000000e-03  1.00300000e+03   -3.43676615e-01  3.11829856e-01  3.93175513e-01
 1.50000000e-03  1.00300000e+03   -3.62650364e-01  3.06433780e-01  3.67068882e-01
 1.75000000e-03  1.00300000e+03   -3.80653981e-01  3.04476363e-01  3.15487979e-01
 2.00000000e-03  1.00300000e+03   -4.19416327e-01  2.72530055e-01  2.88103469e-01
 2.25000000e-03  1.00300000e+03   -4.60108593e-01  2.84701438e-01  2.31728798e-01
 2.50000000e-03  1.00300000e+03   -4.87225020e-01  2.76577282e-01  1.65258715e-01
 2.75000000e-03  1.00300000e+03   -5.42963638e-01  2.63755103e-01  1.21463574e-01
 3.00000000e-03  1.00300000e+03   -5.65146120e-01  2.58468725e-01  7.69838825e-02
 3.25000000e-03  1.00300000e+03   -6.02199064e-01  2.69491442e-01  2.54077688e-02
 3.50000000e-03  1.00300000e+03   -6.28837117e-01  2.46560914e-01 -2.95030298e-02
 3.75000000e-03  1.00300000e+03   -6.69279850e-01  2.28479339e-01 -9.23910415e-02
 4.00000000e-03  1.00300000e+03   -6.69274195e-01  1.93010336e-01 -1.16280607e-01
 4.25000000e-03  1.00300000e+03   -6.84024599e-01  1.70088260e-01 -1.46704801e-01
 4.50000000e-03  1.00300000e+03   -6.94374367e-01  1.68374696e-01 -2.14329804e-01
 4.75000000e-03  1.00300000e+03   -7.24500993e-01  1.82768677e-01 -2.49850476e-01
 5.00000000e-03  1.00300000e+03   -7.55172800e-01  1.95414434e-01 -2.63485685e-01
 5.25000000e-03  1.00300000e+03   -7.67436282e-01  1.81737742e-01 -2.73321732e-01
 5.50000000e-03  1.00300000e+03   -7.95501249e-01  1.73011103e-01 -3.05016321e-01
 5.75000000e-03  1.00300000e+03   -7.91832744e-01  1.52818304e-01 -3.18088799e-01
 6.00000000e-03  1.00300000e+03   -7.66416253e-01  1.27621766e-01 -3.00673331e-01
 6.25000000e-03  1.00300000e+03   -7.88765153e-01  1.18478829e-01 -3.10903450e-01
 6.50000000e-03  1.00300000e+03   -7.75875482e-01  1.00456608e-01 -3.00037295e-01
 6.75000000e-03  1.00300000e+03   -7.61293659e-01  1.14893488e-01 -3.18221554e-01
 7.00000000e-03  1.00300000e+03   -7.37274707e-01  5.67947683e-02 -2.86140839e-01
 7.25000000e-03  1.00300000e+03   -7.17816971e-01  4.05015076e-02 -2.53954134e-01
 7.50000000e-03  1.00300000e+03   -6.99696534e-01  2.94678815e-02 -2.04214281e-01
 7.75000000e-03  1.00300000e+03   -6.75255775e-01 -9.89990439e-03 -1.70442009e-01
 8.00000000e-03  1.00300000e+03   -6.48128062e-01 -1.86872059e-02 -1.00766830e-01
 8.25000000e-03  1.00300000e+03   -6.06121002e-01 -1.69222297e-02 -6.16293638e-02
 8.50000000e-03  1.00300000e+03   -5.55556483e-01 -2.81597561e-02 -2.87647630e-02
 8.75000000e-03  1.00300000e+03   -5.29296963e-01 -5.59872087e-02  1.40493103e-03
 9.00000000e-03  1.00300000e+03   -4.85354542e-01 -9.37558462e-02  3.96507634e-02
 9.25000000e-03  1.00300000e+03   -4.24286892e-01 -9.69103604e-02  8.03046975e-02
 9.50000000e-03  1.00300000e+03   -3.80219506e-01 -1.23374110e-01  1.32050000e-01
 9.75000000e-03  1.00300000e+03   -3.32969735e-01 -1.34227486e-01  1.60263422e-01
 0.00000000e+00  1.00400000e+03   -2.92594588e-01  2.79636450e-01  5.55146683e-01
 2.50000000e-04  1.00400000e+03   -2.95515941e-01  2.70764689e-01  5.39561783e-01
 5.00000000e-04  1.00400000e+03   -3.30432612e-01  2.70898404e-01  5.31008777e-01
 7.50000000e-04  1.00400000e+03   -3.51707944e-01  2.73239470e-01  5.11391826e-01
 1.00000000e-03  1.00400000e+03   -3.78280725e-01  2.87320476e-01  4.64214231e-01
 1.25000000e-03  1.00400000e+03   -3.75432108e-01  3.12954309e-01  4.08522646e-01
 1.50000000e-03  1.00400000e+03   -3.94538696e-01  3.09626656e-01  3.81649329e-01
 1.75000000e-03  1.00400000e+03   -4.11572653e-01  3.08895076e-01  3.30359293e-01
 2.00000000e-03  1.00400000e+03   -4.50349439e-01  2.78406444e-01  3.03723071e-01
 2.25000000e-03  1.00400000e+03   -4.90467861e-01  2.92145444e-01  2.47348827e-01
 2.50000000e-03  1.00400000e+03   -5.16621512e-01  2.86714262e-01  1.82816652e-01
 2.75000000e-03  1.00400000e+03   -5.71062778e-01  2.74981706e-01  1.39275137e-01
 3.00000000e-03  1.00400000e+03   -5.91205938e-01  2.70167387e-01  9.50885297e-02
 3.25000000e-03  1.00400000e+03   -6.26348394e-01  2.81173190e-01  4.55897503e-02
 3.50000000e-03  1.00400000e+03   -6.50922957e-01  2.58676859e-01 -9.71047761e-03
 3.75000000e-03  1.00400000e+03   -6.89189434e-01  2.39343644e-01 -7.29049522e-02
 4.00000000e-03  1.00400000e+03   -6.88735447e-01  2.03589135e-01 -9.64679786e-02
 4.25000000e-03  1.00400000e+03   -7.01903821e-01  1.80340344e-01 -1.25919455e-01
 4.50000000e-03  1.00400000e+03   -7.09995798e-01  1.78114371e-01 -1.93583998e-01
 4.75000000e-03  1.00400000e+03   -7.37806118e-01  1.94657649e-01 -2.29577420e-01
 5.00000000e-03  1.00400000e+03   -7.66252547e-01  2.07727877e-01 -2.44643368e-01
 5.25000000e-03  1.00400000e+03   -7.77248379e-01  1.93840127e-01 -2.54533948e-01
 5.50000000e-03  1.00400000e+03   -8.02727608e-01  1.86964953e-01 -2.87958611e-01
 5.75000000e-03  1.00400000e+03   -7.97282852e-01  1.66245882e-01 -3.02092442e-01
 6.00000000e-03  1.00400000e+03   -7.69937484e-01  1.41360235e-01 -2.85380085e-01
 6.25000000e-03  1.00400000e+03   -7.91198466e-01  1.32045431e-01 -2.96860579e-01
 6.50000000e-03  1.00400000e+03   -7.76300872e-01  1.13255835e-01 -2.86679082e-01
 6.75000000e-03  1.00400000e+03   -7.59962530e-01  1.28379109e-01 -3.05409301e-01
 7.00000000e-03  1.00400000e+03   -7.34931777e-01  6.96388718e-02 -2.75591999e-01
 7.25000000e-03  1.00400000e+03   -7.14173396e-01  5.42350106e-02 -2.45967608e-01
 7.50000000e-03  1.00400000e+03   -6.95723998e-01  4.26527972e-02 -1.97290338e-01
 7.75000000e-03  1.00400000e+03   -6.69731575e-01  1.09367276e-03 -1.65021797e-01
 8.00000000e-03  1.00400000e+03   -6.40184701e-01 -7.76132443e-03 -9.74212707e-02
 8.25000000e-03  1.00400000e+03   -5.96204997e-01 -6.09661280e-03 -6.02251740e-02
 8.50000000e-03  1.00400000e+03   -5.44934437e-01 -1.85847048e-02 -2.75552187e-02
 8.75000000e-03  1.00400000e+03   -5.17131732e-01 -4.68145568e-02  1.75588609e-03
 9.00000000e-03  1.00400000e+03   -4.72602205e-01 -8.44682406e-02  3.98003445e-02
 9.25000000e-03  1.00400000e+03   -4.12013443e-01 -8.90227567e-02  7.69082678e-02
 9.50000000e-03  1.00400000e+03   -3.68356556e-01 -1.15359440e-01  1.26872244e-01
 9.75000000e-03  1.00400000e+03   -3.22297787e-01 -1.27653762e-01  1.54717688e-01
 0.00000000e+00  1.00500000e+03   -2.80851419e-01  2.80224555e-01  5.54324720e-01
 2.50000000e-04  1.00500000e+03   -2.81524370e-01  2.71819233e-01  5.39909307e-01
 5.00000000e-04  1.00500000e+03   -3.15537208e-01  2.73375736e-01  5.32062459e-01
 7.50000000e-04  1.00500000e+03   -3.34288653e-01  2.76409867e-01  5.14326335e-01
 1.00000000e-03  1.00500000e+03   -3.60558794e-01  2.90655577e-01  4.66940767e-01
 1.25000000e-03  1.00500000e+03   -3.56521622e-01  3.17704234e-01  4.13110419e-01
 1.50000000e-03  1.00500000e+03   -3.75134276e-01  3.15825443e-01  3.86173258e-01
 1.75000000e-03  1.00500000e+03   -3.91466346e-01  3.14573830e-01  3.35512501e-01
 2.00000000e-03  1.00500000e+03   -4.28684771e-01  2.84420879e-01  3.10253856e-01
 2.25000000e-03  1.00500000e+03   -4.68826622e-01  2.98255939e-01  2.55548197e-01
 2.50000000e-03  1.00500000e+03   -4.95123568e-01  2.94397978e-01  1.91112141e-01
 2.75000000e-03  1.00500000e+03   -5.48770072e-01  2.83111711e-01  1.47867682e-01
 3.00000000e-03  1.00500000e+03   -5.69269514e-01  2.78930772e-01  1.03895825e-01
 3.25000000e-03  1.00500000e+03   -6.04858865e-01  2.89648731e-01  5.36214759e-02
 3.50000000e-03  1.00500000e+03   -6.29285475e-01  2.67893760e-01 -2.67884287e-03
 3.75000000e-03  1.00500000e+03   -6.68598844e-01  2.47042264e-01 -6.66028034e-02
 4.00000000e-03  1.00500000e+03   -6.68587547e-01  2.11422389e-01 -9.02779379e-02
 4.25000000e-03  1.00500000e+03   -6.82634575e-01  1.88069422e-01 -1.19672771e-01
 4.50000000e-03  1.00500000e+03   -6.92227743e-01  1.86863896e-01 -1.87551559e-01
 4.75000000e-03  1.00500000e+03   -7.19907834e-01  2.04606697e-01 -2.23714698e-01
 5.00000000e-03  1.00500000e+03   -7.50569338e-01  2.17105135e-01 -2.40595098e-01
 5.25000000e-03  1.00500000e+03   -7.62453447e-01  2.02461186e-01 -2.51501877e-01
 5.50000000e-03  1.00500000e+03   -7.89586744e-01  1.94933612e-01 -2.87005019e-01
 5.75000000e-03  1.00500000e+03   -7.83465091e-01  1.73806560e-01 -3.03504475e-01
 6.00000000e-03  1.00500000e+03   -7.56375477e-01  1.50057168e-01 -2.87849229e-01
 6.25000000e-03  1.00500000e+03   -7.79831902e-01  1.40839714e-01 -3.00090511e-01
 6.50000000e-03  1.00500000e+03   -7.66060600e-01  1.22128340e-01 -2.90519734e-01
 6.75000000e-03  1.00500000e+03   -7.52124322e-01  1.37875743e-01 -3.09201058e-01
 7.00000000e-03  1.00500000e+03   -7.27821235e-01  7.93218346e-02 -2.80055492e-01
 7.25000000e-03  1.00500000e+03   -7.07096698e-01  6.41141201e-02 -2.52230041e-01
 7.50000000e-03  1.00500000e+03   -6.91438528e-01  5.28850447e-02 -2.03675373e-01
 7.75000000e-03  1.00500000e+03   -6.65337197e-01  1.36332329e-02 -1.72057137e-01
 8.00000000e-03  1.00500000e+03   -6.34649727e-01  5.18410356e-03 -1.04712868e-01
 8.25000000e-03  1.00500000e+03   -5.91285058e-01  6.39193761e-03 -6.82797886e-02
 8.50000000e-03  1.00500000e+03   -5.39596215e-01 -8.47640921e-03 -3.54217286e-02
 8.75000000e-03  1.00500000e+03   -5.12231838e-01 -3.81079286e-02 -6.88054226e-03
 9.00000000e-03  1.00500000e+03   -4.67961481e-01 -7.45579395e-02  3.26975591e-02
 9.25000000e-03  1.00500000e+03   -4.09271440e-01 -8.07936507e-02  6.84270190e-02
 9.50000000e-03  1.00500000e+03   -3.67058378e-01 -1.08642998e-01  1.17675209e-01
 9.75000000e-03  1.00500000e+03   -3.22757835e-01 -1.22142894e-01  1.45198732e-01
 0.00000000e+00  1.00600000e+03   -2.88148232e-01  2.82201391e-01  5.61111053e-01
 2.50000000e-04  1.00600000e+03   -2.86615574e-01  2.76451463e-01  5.46950972e-01
 5.00000000e-04  1.00600000e+03   -3.19873295e-01  2.79392398e-01  5.39338145e-01
 7.50000000e-04  1.00600000e+03   -3.36995185e-01  2.85395643e-01  5.21831641e-01
 1.00000000e-03  1.00600000e+03   -3.61453630e-01  3.00028308e-01  4.74188690e-01
 1.25000000e-03  1.00600000e+03   -3.56710118e-01  3.28498216e-01  4.20012920e-01
 1.50000000e-03  1.00600000e+03   -3.74701739e-01  3.28269891e-01  3.92448188e-01
 1.75000000e-03  1.00600000e+03   -3.90000560e-01  3.28227946e-01  3.41908656e-01
 2.00000000e-03  1.00600000e+03   -4.25079002e-01  3.00599862e-01  3.16879311e-01
 2.25000000e-03  1.00600000e+03   -4.64933959e-01  3.16978517e-01  2.63275989e-01
 2.50000000e-03  1.00600000e+03   -4.90283791e-01  3.14577002e-01  2.00667651e-01
 2.75000000e-03  1.00600000e+03   -5.43347391e-01  3.04979046e-01  1.56575277e-01
 3.00000000e-03  1.00600000e+03   -5.63204031e-01  3.01751269e-01  1.13462268e-01
 3.25000000e-03  1.00600000e+03   -5.96417121e-01  3.12666591e-01  6.36043117e-02
 3.50000000e-03  1.00600000e+03   -6.20444240e-01  2.91996935e-01  7.41304933e-03
 3.75000000e-03  1.00600000e+03   -6.60033913e-01  2.71899049e-01 -5.67633289e-02
 4.00000000e-03  1.00600000e+03   -6.60053669e-01  2.37097883e-01 -8.00271019e-02
 4.25000000e-03  1.00600000e+03   -6.73692205e-01  2.13205326e-01 -1.09647279e-01
 4.50000000e-03  1.00600000e+03   -6.83316158e-01  2.12754944e-01 -1.75763098e-01
 4.75000000e-03  1.00600000e+03   -7.10223653e-01  2.32000283e-01 -2.11775041e-01
 5.00000000e-03  1.00600000e+03   -7.40429604e-01  2.45197171e-01 -2.29410492e-01
 5.25000000e-03  1.00600000e+03   -7.51737900e-01  2.30617918e-01 -2.40459011e-01
 5.50000000e-03  1.00600000e+03   -7.80094806e-01  2.23508617e-01 -2.77667733e-01
 5.75000000e-03  1.00600000e+03   -7.73701440e-01  2.03713397e-01 -2.95164682e-01
 6.00000000e-03  1.00600000e+03   -7.47342095e-01  1.79034976e-01 -2.79849031e-01
 6.25000000e-03  1.00600000e+03   -7.70739433e-01  1.70720610e-01 -2.92166885e-01
 6.50000000e-03  1.00600000e+03   -7.57653362e-01  1.52127073e-01 -2.84129109e-01
 6.75000000e-03  1.00600000e+03   -7.44139351e-01  1.67736427e-01 -3.03651428e-01
 7.00000000e-03  1.00600000e+03   -7.20497875e-01  1.09857790e-01 -2.75846531e-01
 7.25000000e-03  1.00600000e+03   -7.01132524e-01  9.32672736e-02 -2.50243157e-01
 7.50000000e-03  1.00600000e+03   -6.86018480e-01  8.25017907e-02 -2.03797276e-01
 7.75000000e-03  1.00600000e+03   -6.59032998e-01  4.29609625e-02 -1.73332579e-01
 8.00000000e-03  1.00600000e+03   -6.27241380e-01  3.32367575e-02 -1.06806653e-01
 8.25000000e-03  1.00600000e+03   -5.83644539e-01  3.43449129e-02 -7.23460902e-02
 8.50000000e-03  1.00600000e+03   -5.32160722e-01  1.84349810e-02 -4.03936854e-02
 8.75000000e-03  1.00600000e+03   -5.04718854e-01 -1.31326812e-02 -1.33633418e-02
 9.00000000e-03  1.00600000e+03   -4.60815488e-01 -4.81751865e-02  2.49026396e-02
 9.25000000e-03  1.00600000e+03   -4.02763941e-01 -5.54050090e-02  5.75109212e-02
 9.50000000e-03  1.00600000e+03   -3.60606374e-01 -8.57485543e-02  1.03779018e-01
 9.75000000e-03  1.00600000e+03   -3.16391124e-01 -1.00614725e-01  1.29365987e-01
 0.00000000e+00  1.00700000e+03   -2.85933624e-01  2.65686773e-01  5.85263447e-01
 2.50000000e-04  1.00700000e+03   -2.83141969e-01  2.61127409e-01  5.72902905e-01
 5.00000000e-04  1.00700000e+03   -3.14960187e-01  2.66397676e-01  5.66792148e-01
 7.50000000e-04  1.00700000e+03   -3.30614397e-01  2.74404574e-01  5.49898580e-01
 1.00000000e-03  1.00700000e+03   -3.56055282e-01  2.90023712e-01  5.02845203e-01
 1.25000000e-03  1.00700000e+03   -3.50573572e-01  3.21354227e-01  4.50457214e-01
 1.50000000e-03  1.00700000e+03   -3.68838444e-01  3.23390326e-01  4.23086940e-01
 1.75000000e-03  1.00700000e+03   -3.85125170e-01  3.25592180e-01  3.73318956e-01
 2.00000000e-03  1.00700000e+03   -4.18811078e-01  3.00989238e-01  3.49206937e-01
 2.25000000e-03  1.00700000e+03   -4.59407070e-01  3.18595619e-01  2.96484028e-01
 2.50000000e-03  1.00700000e+03   -4.85090408e-01  3.16353183e-01  2.34554289e-01
 2.75000000e-03  1.00700000e+03   -5.39599569e-01  3.07994051e-01  1.90662212e-01
 3.00000000e-03  1.00700000e+03   -5.59970495e-01  3.06854106e-01  1.48982664e-01
 3.25000000e-03  1.00700000e+03   -5.94292778e-01  3.17882792e-01  1.00039088e-01
 3.50000000e-03  1.00700000e+03   -6.19598163e-01  2.99756634e-01  4.53923527e-02
 3.75000000e-03  1.00700000e+03   -6.60922909e-01  2.79095376e-01 -1.78943329e-02
 4.00000000e-03  1.00700000e+03   -6.62396559e-01  2.46363213e-01 -4.28552742e-02
 4.25000000e-03  1.00700000e+03   -6.76475462e-01  2.22532164e-01 -7.14827552e-02
 4.50000000e-03  1.00700000e+03   -6.86829534e-01  2.23267333e-01 -1.37016124e-01
 4.75000000e-03  1.00700000e+03   -7.13679781e-01  2.43046404e-01 -1.72832216e-01
 5.00000000e-03  1.00700000e+03   -7.46040359e-01  2.56679029e-01 -1.92644326e-01
 5.25000000e-03  1.00700000e+03   -7.56746881e-01  2.42873324e-01 -2.03379025e-01
 5.50000000e-03  1.00700000e+03   -7.85801958e-01  2.36608521e-01 -2.40790488e-01
 5.75000000e-03  1.00700000e+03   -7.81003558e-01  2.17275582e-01 -2.60613624e-01
 6.00000000e-03  1.00700000e+03   -7.54937286e-01  1.91507818e-01 -2.45453898e-01
 6.25000000e-03  1.00700000e+03   -7.79279783e-01  1.83172623e-01 -2.59604705e-01
 6.50000000e-03  1.00700000e+03   -7.66583725e-01  1.64156214e-01 -2.52879663e-01
 6.75000000e-03  1.00700000e+03   -7.53312824e-01  1.81358884e-01 -2.74654265e-01
 7.00000000e-03  1.00700000e+03   -7.31465412e-01  1.23640080e-01 -2.50436527e-01
 7.25000000e-03  1.00700000e+03   -7.11219033e-01  1.06813087e-01 -2.26869481e-01
 7.50000000e-03  1.00700000e+03   -6.97201026e-01  9.52296975e-02 -1.83978370e-01
 7.75000000e-03  1.00700000e+03   -6.70123824e-01  5.66352263e-02 -1.55607010e-01
 8.00000000e-03  1.00700000e+03   -6.37104834e-01  4.57593775e-02 -9.15199178e-02
 8.25000000e-03  1.00700000e+03   -5.92100618e-01  4.76499188e-02 -5.89938473e-02
 8.50000000e-03  1.00700000e+03   -5.39935638e-01  3.20248128e-02 -2.92571144e-02
 8.75000000e-03  1.00700000e+03   -5.12151397e-01 -1.89906494e-04 -4.68346228e-03
 9.00000000e-03  1.00700000e+03   -4.67592924e-01 -3.44476029e-02  3.09949410e-02
 9.25000000e-03  1.00700000e+03   -4.09011313e-01 -4.19861505e-02  5.99294900e-02
 9.50000000e-03  1.00700000e+03   -3.66096302e-01 -7.11993057e-02  1.04325938e-01
 9.75000000e-03  1.00700000e+03   -3.21963828e-01 -8.42576179e-02  1.27540043e-01
 0.00000000e+00  1.00800000e+03   -3.04788493e-01  2.82552671e-01  5.94951754e-01
 2.50000000e-04  1.00800000e+03   -2.99287445e-01  2.78085400e-01  5.82685515e-01
 5.00000000e-04  1.00800000e+03   -3.29905606e-01  2.82667356e-01  5.75811549e-01
 7.50000000e-04  1.00800000e+03   -3.43238033e-01  2.90142240e-01  5.58392592e-01
 1.00000000e-03  1.00800000e+03   -3.66918789e-01  3.04859571e-01  5.08238095e-01
 1.25000000e-03  1.00800000e+03   -3.59394841e-01  3.36232212e-01  4.54103628e-01
 1.50000000e-03  1.00800000e+03   -3.75979510e-01  3.38337679e-01  4.23564913e-01
 1.75000000e-03  1.00800000e+03   -3.90364212e-01  3.39379870e-01  3.72513763e-01
 2.00000000e-03  1.00800000e+03   -4.22606519e-01  3.14736186e-01  3.45899176e-01
 2.25000000e-03  1.00800000e+03   -4.60727629e-01  3.32173803e-01  2.92230794e-01
 2.50000000e-03  1.00800000e+03   -4.84145145e-01  3.29898856e-01  2.30328002e-01
 2.75000000e-03  1.00800000e+03   -5.36561602e-01  3.20539441e-01  1.84536487e-01
 3.00000000e-03  1.00800000e+03   -5.55768691e-01  3.18453660e-01  1.42004018e-01
 3.25000000e-03  1.00800000e+03   -5.88806348e-01  3.28540089e-01  9.29094714e-02
 3.50000000e-03  1.00800000e+03   -6.11845190e-01  3.10664432e-01  3.78168427e-02
 3.75000000e-03  1.00800000e+03   -6.53212937e-01  2.88033869e-01 -2.60184281e-02
 4.00000000e-03  1.00800000e+03   -6.54356758e-01  2.54621034e-01 -5.28442806e-02
 4.25000000e-03  1.00800000e+03   -6.67371478e-01  2.29254268e-01 -8.18322052e-02
 4.50000000e-03  1.00800000e+03   -6.77217765e-01  2.29104163e-01 -1.47425294e-01
 4.75000000e-03  1.00800000e+03   -7.03393331e-01  2.49271087e-01 -1.82815738e-01
 5.00000000e-03  1.00800000e+03   -7.36071352e-01  2.62531102e-01 -2.03836256e-01
 5.25000000e-03  1.00800000e+03   -7.46672139e-01  2.48665203e-01 -2.16164203e-01
 5.50000000e-03  1.00800000e+03   -7.75350592e-01  2.42060818e-01 -2.54518879e-01
 5.75000000e-03  1.00800000e+03   -7.69771728e-01  2.21818190e-01 -2.74895999e-01
 6.00000000e-03  1.00800000e+03   -7.43568491e-01  1.97201564e-01 -2.60166667e-01
 6.25000000e-03  1.00800000e+03   -7.68845823e-01  1.89186767e-01 -2.73521882e-01
 6.50000000e-03  1.00800000e+03   -7.57134281e-01  1.69623673e-01 -2.66234595e-01
 6.75000000e-03  1.00800000e+03   -7.46487358e-01  1.87605351e-01 -2.88179010e-01
 7.00000000e-03  1.00800000e+03   -7.25399591e-01  1.30466332e-01 -2.63072254e-01
 7.25000000e-03  1.00800000e+03   -7.06223244e-01  1.13399628e-01 -2.39876064e-01
 7.50000000e-03  1.00800000e+03   -6.92925923e-01  1.01118646e-01 -1.96848125e-01
 7.75000000e-03  1.00800000e+03   -6.67041759e-01  6.36665979e-02 -1.68629922e-01
 8.00000000e-03  1.00800000e+03   -6.32998521e-01  5.33800181e-02 -1.03729269e-01
 8.25000000e-03  1.00800000e+03   -5.89164955e-01  5.51584099e-02 -7.15747320e-02
 8.50000000e-03  1.00800000e+03   -5.37429543e-01  3.90984110e-02 -4.33079137e-02
 8.75000000e-03  1.00800000e+03   -5.12021480e-01  6.82618334e-03 -1.90654417e-02
 9.00000000e-03  1.00800000e+03   -4.69743943e-01 -2.63020532e-02  1.80160499e-02
 9.25000000e-03  1.00800000e+03   -4.14218172e-01 -3.34059931e-02  4.58375089e-02
 9.50000000e-03  1.00800000e+03   -3.73359263e-01 -6.27502503e-02  9.00527488e-02
 9.75000000e-03  1.00800000e+03   -3.30615670e-01 -7.54171113e-02  1.11528744e-01
 0.00000000e+00  1.00900000e+03   -3.18713694e-01  2.94041350e-01  6.15558303e-01
 2.50000000e-04  1.00900000e+03   -3.13120758e-01  2.90943905e-01  6.04750010e-01
 5.00000000e-04  1.00900000e+03   -3.43480358e-01  2.96707502e-01  5.97983164e-01
 7.50000000e-04  1.00900000e+03   -3.57857101e-01  3.05989069e-01  5.79546004e-01